
     Program PWSCF v.6.4.1 starts on  5May2023 at 14: 1:31 

     This program is part of the open-source Quantum ESPRESSO suite
     for quantum simulation of materials; please cite
         "P. Giannozzi et al., J. Phys.:Condens. Matter 21 395502 (2009);
         "P. Giannozzi et al., J. Phys.:Condens. Matter 29 465901 (2017);
          URL http://www.quantum-espresso.org", 
     in publications or presentations arising from this work. More details at
     http://www.quantum-espresso.org/quote

     Parallel version (MPI), running on    16 processors

     MPI processes distributed on     1 nodes
     K-points division:     npool     =       4
     R & G space division:  proc/nbgrp/npool/nimage =       4
     Reading input from in
Warning: card &IONS ignored
Warning: card       ION_DYNAMICS='BFGS' ignored
Warning: card       UPSCALE=100 ignored
Warning: card / ignored

     Current dimensions of program PWSCF are:
     Max number of different atomic species (ntypx) = 10
     Max number of k-points (npk) =  40000
     Max angular momentum in pseudopotentials (lmaxx) =  3

     Atomic positions and unit cell read from directory:
     ./slab.save/

     Message from routine readpp:
     file ./slab.save/C.upf not found

     Subspace diagonalization in iterative solution of the eigenvalue problem:
     a serial algorithm will be used

     Found symmetry operation: I + ( -0.5000 -0.5000  0.0000)
     This is a supercell, fractional translations are disabled
     Message from routine setup:
     DEPRECATED: symmetry with ibrav=0, use correct ibrav instead

     Parallelization info
     --------------------
     sticks:   dense  smooth     PW     G-vecs:    dense   smooth      PW
     Min         178     178     61                26030    26030    5485
     Max         179     179     62                26045    26045    5512
     Sum         713     713    247               104149   104149   22009



     bravais-lattice index     =            0
     lattice parameter (alat)  =       4.6276  a.u.
     unit-cell volume          =    1656.6984 (a.u.)^3
     number of atoms/cell      =            4
     number of atomic types    =            1
     number of electrons       =        16.00
     number of Kohn-Sham states=          101
     kinetic-energy cutoff     =      60.0000  Ry
     charge density cutoff     =     240.0000  Ry
     Exchange-correlation      = PBE ( 1  4  3  4 0 0)

     celldm(1)=   4.627602  celldm(2)=   0.000000  celldm(3)=   0.000000
     celldm(4)=   0.000000  celldm(5)=   0.000000  celldm(6)=   0.000000

     crystal axes: (cart. coord. in units of alat)
               a(1) = (   1.000000   0.000000   0.000000 )  
               a(2) = (   0.000000   1.732050   0.000000 )  
               a(3) = (   0.000000   0.000000   9.651950 )  

     reciprocal axes: (cart. coord. in units 2 pi/alat)
               b(1) = (  1.000000  0.000000  0.000000 )  
               b(2) = (  0.000000  0.577350  0.000000 )  
               b(3) = (  0.000000  0.000000  0.103606 )  


     PseudoPot. # 1 for C  read from file:
     /home/nlqcheng/pseudo/C.upf
     MD5 check sum: 34a24e64c0a39f27c6c36b90a16ac686
     Pseudo is Norm-conserving + core correction, Zval =  4.0
     Generated using ONCVPSP code by D. R. Hamann
     Using radial grid of 1248 points,  4 beta functions with: 
                l(1) =   0
                l(2) =   0
                l(3) =   1
                l(4) =   1

     atomic species   valence    mass     pseudopotential
        C              4.00    12.01100     C ( 1.00)

      2 Sym. Ops. (no inversion) found


                                    s                        frac. trans.

      isym =  1     identity                                     

 cryst.   s( 1) = (     1          0          0      )
                  (     0          1          0      )
                  (     0          0          1      )

 cart.    s( 1) = (  1.0000000  0.0000000  0.0000000 )
                  (  0.0000000  1.0000000  0.0000000 )
                  (  0.0000000  0.0000000  1.0000000 )


      isym =  2     inv. 180 deg rotation - cart. axis [1,0,0]   

 cryst.   s( 2) = (    -1          0          0      )
                  (     0          1          0      )
                  (     0          0          1      )

 cart.    s( 2) = ( -1.0000000  0.0000000  0.0000000 )
                  (  0.0000000  1.0000000  0.0000000 )
                  (  0.0000000  0.0000000  1.0000000 )


   Cartesian axes

     site n.     atom                  positions (alat units)
         1           C   tau(   1) = (   0.4999998   0.5773501   2.3783114  )
         2           C   tau(   2) = (   0.0000000   1.4433754   2.3783114  )
         3           C   tau(   3) = (   0.4999999   0.0000000   2.3783114  )
         4           C   tau(   4) = (   0.0000000   0.8660252   2.3783114  )

   Crystallographic axes

     site n.     atom                  positions (cryst. coord.)
         1           C   tau(   1) = (  0.4999998  0.3333333  0.2464074  )
         2           C   tau(   2) = (  0.0000000  0.8333334  0.2464074  )
         3           C   tau(   3) = (  0.4999999  0.0000000  0.2464074  )
         4           C   tau(   4) = (  0.0000000  0.5000000  0.2464074  )

     number of k points=   288
                       cart. coord. in units 2pi/alat
        k(    1) = (   0.0000000   0.0000000   0.0000000), wk =   0.0069444
        k(    2) = (   0.0000000   0.0481125   0.0000000), wk =   0.0069444
        k(    3) = (   0.0000000   0.0962251   0.0000000), wk =   0.0069444
        k(    4) = (   0.0000000   0.1443376   0.0000000), wk =   0.0069444
        k(    5) = (   0.0000000   0.1924501   0.0000000), wk =   0.0069444
        k(    6) = (   0.0000000   0.2405627   0.0000000), wk =   0.0069444
        k(    7) = (   0.0000000   0.2886752   0.0000000), wk =   0.0069444
        k(    8) = (   0.0000000   0.3367877   0.0000000), wk =   0.0069444
        k(    9) = (   0.0000000   0.3849003   0.0000000), wk =   0.0069444
        k(   10) = (   0.0000000   0.4330128   0.0000000), wk =   0.0069444
        k(   11) = (   0.0000000   0.4811254   0.0000000), wk =   0.0069444
        k(   12) = (   0.0000000   0.5292379   0.0000000), wk =   0.0069444
        k(   13) = (   0.0416667   0.0000000   0.0000000), wk =   0.0069444
        k(   14) = (   0.0416667   0.0481125   0.0000000), wk =   0.0069444
        k(   15) = (   0.0416667   0.0962251   0.0000000), wk =   0.0069444
        k(   16) = (   0.0416667   0.1443376   0.0000000), wk =   0.0069444
        k(   17) = (   0.0416667   0.1924501   0.0000000), wk =   0.0069444
        k(   18) = (   0.0416667   0.2405627   0.0000000), wk =   0.0069444
        k(   19) = (   0.0416667   0.2886752   0.0000000), wk =   0.0069444
        k(   20) = (   0.0416667   0.3367877   0.0000000), wk =   0.0069444
        k(   21) = (   0.0416667   0.3849003   0.0000000), wk =   0.0069444
        k(   22) = (   0.0416667   0.4330128   0.0000000), wk =   0.0069444
        k(   23) = (   0.0416667   0.4811254   0.0000000), wk =   0.0069444
        k(   24) = (   0.0416667   0.5292379   0.0000000), wk =   0.0069444
        k(   25) = (   0.0833333   0.0000000   0.0000000), wk =   0.0069444
        k(   26) = (   0.0833333   0.0481125   0.0000000), wk =   0.0069444
        k(   27) = (   0.0833333   0.0962251   0.0000000), wk =   0.0069444
        k(   28) = (   0.0833333   0.1443376   0.0000000), wk =   0.0069444
        k(   29) = (   0.0833333   0.1924501   0.0000000), wk =   0.0069444
        k(   30) = (   0.0833333   0.2405627   0.0000000), wk =   0.0069444
        k(   31) = (   0.0833333   0.2886752   0.0000000), wk =   0.0069444
        k(   32) = (   0.0833333   0.3367877   0.0000000), wk =   0.0069444
        k(   33) = (   0.0833333   0.3849003   0.0000000), wk =   0.0069444
        k(   34) = (   0.0833333   0.4330128   0.0000000), wk =   0.0069444
        k(   35) = (   0.0833333   0.4811254   0.0000000), wk =   0.0069444
        k(   36) = (   0.0833333   0.5292379   0.0000000), wk =   0.0069444
        k(   37) = (   0.1250000   0.0000000   0.0000000), wk =   0.0069444
        k(   38) = (   0.1250000   0.0481125   0.0000000), wk =   0.0069444
        k(   39) = (   0.1250000   0.0962251   0.0000000), wk =   0.0069444
        k(   40) = (   0.1250000   0.1443376   0.0000000), wk =   0.0069444
        k(   41) = (   0.1250000   0.1924501   0.0000000), wk =   0.0069444
        k(   42) = (   0.1250000   0.2405627   0.0000000), wk =   0.0069444
        k(   43) = (   0.1250000   0.2886752   0.0000000), wk =   0.0069444
        k(   44) = (   0.1250000   0.3367877   0.0000000), wk =   0.0069444
        k(   45) = (   0.1250000   0.3849003   0.0000000), wk =   0.0069444
        k(   46) = (   0.1250000   0.4330128   0.0000000), wk =   0.0069444
        k(   47) = (   0.1250000   0.4811254   0.0000000), wk =   0.0069444
        k(   48) = (   0.1250000   0.5292379   0.0000000), wk =   0.0069444
        k(   49) = (   0.1666667   0.0000000   0.0000000), wk =   0.0069444
        k(   50) = (   0.1666667   0.0481125   0.0000000), wk =   0.0069444
        k(   51) = (   0.1666667   0.0962251   0.0000000), wk =   0.0069444
        k(   52) = (   0.1666667   0.1443376   0.0000000), wk =   0.0069444
        k(   53) = (   0.1666667   0.1924501   0.0000000), wk =   0.0069444
        k(   54) = (   0.1666667   0.2405627   0.0000000), wk =   0.0069444
        k(   55) = (   0.1666667   0.2886752   0.0000000), wk =   0.0069444
        k(   56) = (   0.1666667   0.3367877   0.0000000), wk =   0.0069444
        k(   57) = (   0.1666667   0.3849003   0.0000000), wk =   0.0069444
        k(   58) = (   0.1666667   0.4330128   0.0000000), wk =   0.0069444
        k(   59) = (   0.1666667   0.4811254   0.0000000), wk =   0.0069444
        k(   60) = (   0.1666667   0.5292379   0.0000000), wk =   0.0069444
        k(   61) = (   0.2083333   0.0000000   0.0000000), wk =   0.0069444
        k(   62) = (   0.2083333   0.0481125   0.0000000), wk =   0.0069444
        k(   63) = (   0.2083333   0.0962251   0.0000000), wk =   0.0069444
        k(   64) = (   0.2083333   0.1443376   0.0000000), wk =   0.0069444
        k(   65) = (   0.2083333   0.1924501   0.0000000), wk =   0.0069444
        k(   66) = (   0.2083333   0.2405627   0.0000000), wk =   0.0069444
        k(   67) = (   0.2083333   0.2886752   0.0000000), wk =   0.0069444
        k(   68) = (   0.2083333   0.3367877   0.0000000), wk =   0.0069444
        k(   69) = (   0.2083333   0.3849003   0.0000000), wk =   0.0069444
        k(   70) = (   0.2083333   0.4330128   0.0000000), wk =   0.0069444
        k(   71) = (   0.2083333   0.4811254   0.0000000), wk =   0.0069444
        k(   72) = (   0.2083333   0.5292379   0.0000000), wk =   0.0069444
        k(   73) = (   0.2500000   0.0000000   0.0000000), wk =   0.0069444
        k(   74) = (   0.2500000   0.0481125   0.0000000), wk =   0.0069444
        k(   75) = (   0.2500000   0.0962251   0.0000000), wk =   0.0069444
        k(   76) = (   0.2500000   0.1443376   0.0000000), wk =   0.0069444
        k(   77) = (   0.2500000   0.1924501   0.0000000), wk =   0.0069444
        k(   78) = (   0.2500000   0.2405627   0.0000000), wk =   0.0069444
        k(   79) = (   0.2500000   0.2886752   0.0000000), wk =   0.0069444
        k(   80) = (   0.2500000   0.3367877   0.0000000), wk =   0.0069444
        k(   81) = (   0.2500000   0.3849003   0.0000000), wk =   0.0069444
        k(   82) = (   0.2500000   0.4330128   0.0000000), wk =   0.0069444
        k(   83) = (   0.2500000   0.4811254   0.0000000), wk =   0.0069444
        k(   84) = (   0.2500000   0.5292379   0.0000000), wk =   0.0069444
        k(   85) = (   0.2916667   0.0000000   0.0000000), wk =   0.0069444
        k(   86) = (   0.2916667   0.0481125   0.0000000), wk =   0.0069444
        k(   87) = (   0.2916667   0.0962251   0.0000000), wk =   0.0069444
        k(   88) = (   0.2916667   0.1443376   0.0000000), wk =   0.0069444
        k(   89) = (   0.2916667   0.1924501   0.0000000), wk =   0.0069444
        k(   90) = (   0.2916667   0.2405627   0.0000000), wk =   0.0069444
        k(   91) = (   0.2916667   0.2886752   0.0000000), wk =   0.0069444
        k(   92) = (   0.2916667   0.3367877   0.0000000), wk =   0.0069444
        k(   93) = (   0.2916667   0.3849003   0.0000000), wk =   0.0069444
        k(   94) = (   0.2916667   0.4330128   0.0000000), wk =   0.0069444
        k(   95) = (   0.2916667   0.4811254   0.0000000), wk =   0.0069444
        k(   96) = (   0.2916667   0.5292379   0.0000000), wk =   0.0069444
        k(   97) = (   0.3333333   0.0000000   0.0000000), wk =   0.0069444
        k(   98) = (   0.3333333   0.0481125   0.0000000), wk =   0.0069444
        k(   99) = (   0.3333333   0.0962251   0.0000000), wk =   0.0069444
        k(  100) = (   0.3333333   0.1443376   0.0000000), wk =   0.0069444
        k(  101) = (   0.3333333   0.1924501   0.0000000), wk =   0.0069444
        k(  102) = (   0.3333333   0.2405627   0.0000000), wk =   0.0069444
        k(  103) = (   0.3333333   0.2886752   0.0000000), wk =   0.0069444
        k(  104) = (   0.3333333   0.3367877   0.0000000), wk =   0.0069444
        k(  105) = (   0.3333333   0.3849003   0.0000000), wk =   0.0069444
        k(  106) = (   0.3333333   0.4330128   0.0000000), wk =   0.0069444
        k(  107) = (   0.3333333   0.4811254   0.0000000), wk =   0.0069444
        k(  108) = (   0.3333333   0.5292379   0.0000000), wk =   0.0069444
        k(  109) = (   0.3750000   0.0000000   0.0000000), wk =   0.0069444
        k(  110) = (   0.3750000   0.0481125   0.0000000), wk =   0.0069444
        k(  111) = (   0.3750000   0.0962251   0.0000000), wk =   0.0069444
        k(  112) = (   0.3750000   0.1443376   0.0000000), wk =   0.0069444
        k(  113) = (   0.3750000   0.1924501   0.0000000), wk =   0.0069444
        k(  114) = (   0.3750000   0.2405627   0.0000000), wk =   0.0069444
        k(  115) = (   0.3750000   0.2886752   0.0000000), wk =   0.0069444
        k(  116) = (   0.3750000   0.3367877   0.0000000), wk =   0.0069444
        k(  117) = (   0.3750000   0.3849003   0.0000000), wk =   0.0069444
        k(  118) = (   0.3750000   0.4330128   0.0000000), wk =   0.0069444
        k(  119) = (   0.3750000   0.4811254   0.0000000), wk =   0.0069444
        k(  120) = (   0.3750000   0.5292379   0.0000000), wk =   0.0069444
        k(  121) = (   0.4166667   0.0000000   0.0000000), wk =   0.0069444
        k(  122) = (   0.4166667   0.0481125   0.0000000), wk =   0.0069444
        k(  123) = (   0.4166667   0.0962251   0.0000000), wk =   0.0069444
        k(  124) = (   0.4166667   0.1443376   0.0000000), wk =   0.0069444
        k(  125) = (   0.4166667   0.1924501   0.0000000), wk =   0.0069444
        k(  126) = (   0.4166667   0.2405627   0.0000000), wk =   0.0069444
        k(  127) = (   0.4166667   0.2886752   0.0000000), wk =   0.0069444
        k(  128) = (   0.4166667   0.3367877   0.0000000), wk =   0.0069444
        k(  129) = (   0.4166667   0.3849003   0.0000000), wk =   0.0069444
        k(  130) = (   0.4166667   0.4330128   0.0000000), wk =   0.0069444
        k(  131) = (   0.4166667   0.4811254   0.0000000), wk =   0.0069444
        k(  132) = (   0.4166667   0.5292379   0.0000000), wk =   0.0069444
        k(  133) = (   0.4583333   0.0000000   0.0000000), wk =   0.0069444
        k(  134) = (   0.4583333   0.0481125   0.0000000), wk =   0.0069444
        k(  135) = (   0.4583333   0.0962251   0.0000000), wk =   0.0069444
        k(  136) = (   0.4583333   0.1443376   0.0000000), wk =   0.0069444
        k(  137) = (   0.4583333   0.1924501   0.0000000), wk =   0.0069444
        k(  138) = (   0.4583333   0.2405627   0.0000000), wk =   0.0069444
        k(  139) = (   0.4583333   0.2886752   0.0000000), wk =   0.0069444
        k(  140) = (   0.4583333   0.3367877   0.0000000), wk =   0.0069444
        k(  141) = (   0.4583333   0.3849003   0.0000000), wk =   0.0069444
        k(  142) = (   0.4583333   0.4330128   0.0000000), wk =   0.0069444
        k(  143) = (   0.4583333   0.4811254   0.0000000), wk =   0.0069444
        k(  144) = (   0.4583333   0.5292379   0.0000000), wk =   0.0069444
        k(  145) = (   0.5000000   0.0000000   0.0000000), wk =   0.0069444
        k(  146) = (   0.5000000   0.0481125   0.0000000), wk =   0.0069444
        k(  147) = (   0.5000000   0.0962251   0.0000000), wk =   0.0069444
        k(  148) = (   0.5000000   0.1443376   0.0000000), wk =   0.0069444
        k(  149) = (   0.5000000   0.1924501   0.0000000), wk =   0.0069444
        k(  150) = (   0.5000000   0.2405627   0.0000000), wk =   0.0069444
        k(  151) = (   0.5000000   0.2886752   0.0000000), wk =   0.0069444
        k(  152) = (   0.5000000   0.3367877   0.0000000), wk =   0.0069444
        k(  153) = (   0.5000000   0.3849003   0.0000000), wk =   0.0069444
        k(  154) = (   0.5000000   0.4330128   0.0000000), wk =   0.0069444
        k(  155) = (   0.5000000   0.4811254   0.0000000), wk =   0.0069444
        k(  156) = (   0.5000000   0.5292379   0.0000000), wk =   0.0069444
        k(  157) = (   0.5416667   0.0000000   0.0000000), wk =   0.0069444
        k(  158) = (   0.5416667   0.0481125   0.0000000), wk =   0.0069444
        k(  159) = (   0.5416667   0.0962251   0.0000000), wk =   0.0069444
        k(  160) = (   0.5416667   0.1443376   0.0000000), wk =   0.0069444
        k(  161) = (   0.5416667   0.1924501   0.0000000), wk =   0.0069444
        k(  162) = (   0.5416667   0.2405627   0.0000000), wk =   0.0069444
        k(  163) = (   0.5416667   0.2886752   0.0000000), wk =   0.0069444
        k(  164) = (   0.5416667   0.3367877   0.0000000), wk =   0.0069444
        k(  165) = (   0.5416667   0.3849003   0.0000000), wk =   0.0069444
        k(  166) = (   0.5416667   0.4330128   0.0000000), wk =   0.0069444
        k(  167) = (   0.5416667   0.4811254   0.0000000), wk =   0.0069444
        k(  168) = (   0.5416667   0.5292379   0.0000000), wk =   0.0069444
        k(  169) = (   0.5833333   0.0000000   0.0000000), wk =   0.0069444
        k(  170) = (   0.5833333   0.0481125   0.0000000), wk =   0.0069444
        k(  171) = (   0.5833333   0.0962251   0.0000000), wk =   0.0069444
        k(  172) = (   0.5833333   0.1443376   0.0000000), wk =   0.0069444
        k(  173) = (   0.5833333   0.1924501   0.0000000), wk =   0.0069444
        k(  174) = (   0.5833333   0.2405627   0.0000000), wk =   0.0069444
        k(  175) = (   0.5833333   0.2886752   0.0000000), wk =   0.0069444
        k(  176) = (   0.5833333   0.3367877   0.0000000), wk =   0.0069444
        k(  177) = (   0.5833333   0.3849003   0.0000000), wk =   0.0069444
        k(  178) = (   0.5833333   0.4330128   0.0000000), wk =   0.0069444
        k(  179) = (   0.5833333   0.4811254   0.0000000), wk =   0.0069444
        k(  180) = (   0.5833333   0.5292379   0.0000000), wk =   0.0069444
        k(  181) = (   0.6250000   0.0000000   0.0000000), wk =   0.0069444
        k(  182) = (   0.6250000   0.0481125   0.0000000), wk =   0.0069444
        k(  183) = (   0.6250000   0.0962251   0.0000000), wk =   0.0069444
        k(  184) = (   0.6250000   0.1443376   0.0000000), wk =   0.0069444
        k(  185) = (   0.6250000   0.1924501   0.0000000), wk =   0.0069444
        k(  186) = (   0.6250000   0.2405627   0.0000000), wk =   0.0069444
        k(  187) = (   0.6250000   0.2886752   0.0000000), wk =   0.0069444
        k(  188) = (   0.6250000   0.3367877   0.0000000), wk =   0.0069444
        k(  189) = (   0.6250000   0.3849003   0.0000000), wk =   0.0069444
        k(  190) = (   0.6250000   0.4330128   0.0000000), wk =   0.0069444
        k(  191) = (   0.6250000   0.4811254   0.0000000), wk =   0.0069444
        k(  192) = (   0.6250000   0.5292379   0.0000000), wk =   0.0069444
        k(  193) = (   0.6666667   0.0000000   0.0000000), wk =   0.0069444
        k(  194) = (   0.6666667   0.0481125   0.0000000), wk =   0.0069444
        k(  195) = (   0.6666667   0.0962251   0.0000000), wk =   0.0069444
        k(  196) = (   0.6666667   0.1443376   0.0000000), wk =   0.0069444
        k(  197) = (   0.6666667   0.1924501   0.0000000), wk =   0.0069444
        k(  198) = (   0.6666667   0.2405627   0.0000000), wk =   0.0069444
        k(  199) = (   0.6666667   0.2886752   0.0000000), wk =   0.0069444
        k(  200) = (   0.6666667   0.3367877   0.0000000), wk =   0.0069444
        k(  201) = (   0.6666667   0.3849003   0.0000000), wk =   0.0069444
        k(  202) = (   0.6666667   0.4330128   0.0000000), wk =   0.0069444
        k(  203) = (   0.6666667   0.4811254   0.0000000), wk =   0.0069444
        k(  204) = (   0.6666667   0.5292379   0.0000000), wk =   0.0069444
        k(  205) = (   0.7083333   0.0000000   0.0000000), wk =   0.0069444
        k(  206) = (   0.7083333   0.0481125   0.0000000), wk =   0.0069444
        k(  207) = (   0.7083333   0.0962251   0.0000000), wk =   0.0069444
        k(  208) = (   0.7083333   0.1443376   0.0000000), wk =   0.0069444
        k(  209) = (   0.7083333   0.1924501   0.0000000), wk =   0.0069444
        k(  210) = (   0.7083333   0.2405627   0.0000000), wk =   0.0069444
        k(  211) = (   0.7083333   0.2886752   0.0000000), wk =   0.0069444
        k(  212) = (   0.7083333   0.3367877   0.0000000), wk =   0.0069444
        k(  213) = (   0.7083333   0.3849003   0.0000000), wk =   0.0069444
        k(  214) = (   0.7083333   0.4330128   0.0000000), wk =   0.0069444
        k(  215) = (   0.7083333   0.4811254   0.0000000), wk =   0.0069444
        k(  216) = (   0.7083333   0.5292379   0.0000000), wk =   0.0069444
        k(  217) = (   0.7500000   0.0000000   0.0000000), wk =   0.0069444
        k(  218) = (   0.7500000   0.0481125   0.0000000), wk =   0.0069444
        k(  219) = (   0.7500000   0.0962251   0.0000000), wk =   0.0069444
        k(  220) = (   0.7500000   0.1443376   0.0000000), wk =   0.0069444
        k(  221) = (   0.7500000   0.1924501   0.0000000), wk =   0.0069444
        k(  222) = (   0.7500000   0.2405627   0.0000000), wk =   0.0069444
        k(  223) = (   0.7500000   0.2886752   0.0000000), wk =   0.0069444
        k(  224) = (   0.7500000   0.3367877   0.0000000), wk =   0.0069444
        k(  225) = (   0.7500000   0.3849003   0.0000000), wk =   0.0069444
        k(  226) = (   0.7500000   0.4330128   0.0000000), wk =   0.0069444
        k(  227) = (   0.7500000   0.4811254   0.0000000), wk =   0.0069444
        k(  228) = (   0.7500000   0.5292379   0.0000000), wk =   0.0069444
        k(  229) = (   0.7916667   0.0000000   0.0000000), wk =   0.0069444
        k(  230) = (   0.7916667   0.0481125   0.0000000), wk =   0.0069444
        k(  231) = (   0.7916667   0.0962251   0.0000000), wk =   0.0069444
        k(  232) = (   0.7916667   0.1443376   0.0000000), wk =   0.0069444
        k(  233) = (   0.7916667   0.1924501   0.0000000), wk =   0.0069444
        k(  234) = (   0.7916667   0.2405627   0.0000000), wk =   0.0069444
        k(  235) = (   0.7916667   0.2886752   0.0000000), wk =   0.0069444
        k(  236) = (   0.7916667   0.3367877   0.0000000), wk =   0.0069444
        k(  237) = (   0.7916667   0.3849003   0.0000000), wk =   0.0069444
        k(  238) = (   0.7916667   0.4330128   0.0000000), wk =   0.0069444
        k(  239) = (   0.7916667   0.4811254   0.0000000), wk =   0.0069444
        k(  240) = (   0.7916667   0.5292379   0.0000000), wk =   0.0069444
        k(  241) = (   0.8333333   0.0000000   0.0000000), wk =   0.0069444
        k(  242) = (   0.8333333   0.0481125   0.0000000), wk =   0.0069444
        k(  243) = (   0.8333333   0.0962251   0.0000000), wk =   0.0069444
        k(  244) = (   0.8333333   0.1443376   0.0000000), wk =   0.0069444
        k(  245) = (   0.8333333   0.1924501   0.0000000), wk =   0.0069444
        k(  246) = (   0.8333333   0.2405627   0.0000000), wk =   0.0069444
        k(  247) = (   0.8333333   0.2886752   0.0000000), wk =   0.0069444
        k(  248) = (   0.8333333   0.3367877   0.0000000), wk =   0.0069444
        k(  249) = (   0.8333333   0.3849003   0.0000000), wk =   0.0069444
        k(  250) = (   0.8333333   0.4330128   0.0000000), wk =   0.0069444
        k(  251) = (   0.8333333   0.4811254   0.0000000), wk =   0.0069444
        k(  252) = (   0.8333333   0.5292379   0.0000000), wk =   0.0069444
        k(  253) = (   0.8750000   0.0000000   0.0000000), wk =   0.0069444
        k(  254) = (   0.8750000   0.0481125   0.0000000), wk =   0.0069444
        k(  255) = (   0.8750000   0.0962251   0.0000000), wk =   0.0069444
        k(  256) = (   0.8750000   0.1443376   0.0000000), wk =   0.0069444
        k(  257) = (   0.8750000   0.1924501   0.0000000), wk =   0.0069444
        k(  258) = (   0.8750000   0.2405627   0.0000000), wk =   0.0069444
        k(  259) = (   0.8750000   0.2886752   0.0000000), wk =   0.0069444
        k(  260) = (   0.8750000   0.3367877   0.0000000), wk =   0.0069444
        k(  261) = (   0.8750000   0.3849003   0.0000000), wk =   0.0069444
        k(  262) = (   0.8750000   0.4330128   0.0000000), wk =   0.0069444
        k(  263) = (   0.8750000   0.4811254   0.0000000), wk =   0.0069444
        k(  264) = (   0.8750000   0.5292379   0.0000000), wk =   0.0069444
        k(  265) = (   0.9166667   0.0000000   0.0000000), wk =   0.0069444
        k(  266) = (   0.9166667   0.0481125   0.0000000), wk =   0.0069444
        k(  267) = (   0.9166667   0.0962251   0.0000000), wk =   0.0069444
        k(  268) = (   0.9166667   0.1443376   0.0000000), wk =   0.0069444
        k(  269) = (   0.9166667   0.1924501   0.0000000), wk =   0.0069444
        k(  270) = (   0.9166667   0.2405627   0.0000000), wk =   0.0069444
        k(  271) = (   0.9166667   0.2886752   0.0000000), wk =   0.0069444
        k(  272) = (   0.9166667   0.3367877   0.0000000), wk =   0.0069444
        k(  273) = (   0.9166667   0.3849003   0.0000000), wk =   0.0069444
        k(  274) = (   0.9166667   0.4330128   0.0000000), wk =   0.0069444
        k(  275) = (   0.9166667   0.4811254   0.0000000), wk =   0.0069444
        k(  276) = (   0.9166667   0.5292379   0.0000000), wk =   0.0069444
        k(  277) = (   0.9583333   0.0000000   0.0000000), wk =   0.0069444
        k(  278) = (   0.9583333   0.0481125   0.0000000), wk =   0.0069444
        k(  279) = (   0.9583333   0.0962251   0.0000000), wk =   0.0069444
        k(  280) = (   0.9583333   0.1443376   0.0000000), wk =   0.0069444
        k(  281) = (   0.9583333   0.1924501   0.0000000), wk =   0.0069444
        k(  282) = (   0.9583333   0.2405627   0.0000000), wk =   0.0069444
        k(  283) = (   0.9583333   0.2886752   0.0000000), wk =   0.0069444
        k(  284) = (   0.9583333   0.3367877   0.0000000), wk =   0.0069444
        k(  285) = (   0.9583333   0.3849003   0.0000000), wk =   0.0069444
        k(  286) = (   0.9583333   0.4330128   0.0000000), wk =   0.0069444
        k(  287) = (   0.9583333   0.4811254   0.0000000), wk =   0.0069444
        k(  288) = (   0.9583333   0.5292379   0.0000000), wk =   0.0069444

                       cryst. coord.
        k(    1) = (   0.0000000   0.0000000   0.0000000), wk =   0.0069444
        k(    2) = (   0.0000000   0.0833333   0.0000000), wk =   0.0069444
        k(    3) = (   0.0000000   0.1666667   0.0000000), wk =   0.0069444
        k(    4) = (   0.0000000   0.2500000   0.0000000), wk =   0.0069444
        k(    5) = (   0.0000000   0.3333333   0.0000000), wk =   0.0069444
        k(    6) = (   0.0000000   0.4166667   0.0000000), wk =   0.0069444
        k(    7) = (   0.0000000   0.5000000   0.0000000), wk =   0.0069444
        k(    8) = (   0.0000000   0.5833333   0.0000000), wk =   0.0069444
        k(    9) = (   0.0000000   0.6666667   0.0000000), wk =   0.0069444
        k(   10) = (   0.0000000   0.7500000   0.0000000), wk =   0.0069444
        k(   11) = (   0.0000000   0.8333333   0.0000000), wk =   0.0069444
        k(   12) = (   0.0000000   0.9166667   0.0000000), wk =   0.0069444
        k(   13) = (   0.0416667   0.0000000   0.0000000), wk =   0.0069444
        k(   14) = (   0.0416667   0.0833333   0.0000000), wk =   0.0069444
        k(   15) = (   0.0416667   0.1666667   0.0000000), wk =   0.0069444
        k(   16) = (   0.0416667   0.2500000   0.0000000), wk =   0.0069444
        k(   17) = (   0.0416667   0.3333333   0.0000000), wk =   0.0069444
        k(   18) = (   0.0416667   0.4166667   0.0000000), wk =   0.0069444
        k(   19) = (   0.0416667   0.5000000   0.0000000), wk =   0.0069444
        k(   20) = (   0.0416667   0.5833333   0.0000000), wk =   0.0069444
        k(   21) = (   0.0416667   0.6666667   0.0000000), wk =   0.0069444
        k(   22) = (   0.0416667   0.7500000   0.0000000), wk =   0.0069444
        k(   23) = (   0.0416667   0.8333333   0.0000000), wk =   0.0069444
        k(   24) = (   0.0416667   0.9166667   0.0000000), wk =   0.0069444
        k(   25) = (   0.0833333   0.0000000   0.0000000), wk =   0.0069444
        k(   26) = (   0.0833333   0.0833333   0.0000000), wk =   0.0069444
        k(   27) = (   0.0833333   0.1666667   0.0000000), wk =   0.0069444
        k(   28) = (   0.0833333   0.2500000   0.0000000), wk =   0.0069444
        k(   29) = (   0.0833333   0.3333333   0.0000000), wk =   0.0069444
        k(   30) = (   0.0833333   0.4166667   0.0000000), wk =   0.0069444
        k(   31) = (   0.0833333   0.5000000   0.0000000), wk =   0.0069444
        k(   32) = (   0.0833333   0.5833333   0.0000000), wk =   0.0069444
        k(   33) = (   0.0833333   0.6666667   0.0000000), wk =   0.0069444
        k(   34) = (   0.0833333   0.7500000   0.0000000), wk =   0.0069444
        k(   35) = (   0.0833333   0.8333333   0.0000000), wk =   0.0069444
        k(   36) = (   0.0833333   0.9166667   0.0000000), wk =   0.0069444
        k(   37) = (   0.1250000   0.0000000   0.0000000), wk =   0.0069444
        k(   38) = (   0.1250000   0.0833333   0.0000000), wk =   0.0069444
        k(   39) = (   0.1250000   0.1666667   0.0000000), wk =   0.0069444
        k(   40) = (   0.1250000   0.2500000   0.0000000), wk =   0.0069444
        k(   41) = (   0.1250000   0.3333333   0.0000000), wk =   0.0069444
        k(   42) = (   0.1250000   0.4166667   0.0000000), wk =   0.0069444
        k(   43) = (   0.1250000   0.5000000   0.0000000), wk =   0.0069444
        k(   44) = (   0.1250000   0.5833333   0.0000000), wk =   0.0069444
        k(   45) = (   0.1250000   0.6666667   0.0000000), wk =   0.0069444
        k(   46) = (   0.1250000   0.7500000   0.0000000), wk =   0.0069444
        k(   47) = (   0.1250000   0.8333333   0.0000000), wk =   0.0069444
        k(   48) = (   0.1250000   0.9166667   0.0000000), wk =   0.0069444
        k(   49) = (   0.1666667   0.0000000   0.0000000), wk =   0.0069444
        k(   50) = (   0.1666667   0.0833333   0.0000000), wk =   0.0069444
        k(   51) = (   0.1666667   0.1666667   0.0000000), wk =   0.0069444
        k(   52) = (   0.1666667   0.2500000   0.0000000), wk =   0.0069444
        k(   53) = (   0.1666667   0.3333333   0.0000000), wk =   0.0069444
        k(   54) = (   0.1666667   0.4166667   0.0000000), wk =   0.0069444
        k(   55) = (   0.1666667   0.5000000   0.0000000), wk =   0.0069444
        k(   56) = (   0.1666667   0.5833333   0.0000000), wk =   0.0069444
        k(   57) = (   0.1666667   0.6666667   0.0000000), wk =   0.0069444
        k(   58) = (   0.1666667   0.7500000   0.0000000), wk =   0.0069444
        k(   59) = (   0.1666667   0.8333333   0.0000000), wk =   0.0069444
        k(   60) = (   0.1666667   0.9166667   0.0000000), wk =   0.0069444
        k(   61) = (   0.2083333   0.0000000   0.0000000), wk =   0.0069444
        k(   62) = (   0.2083333   0.0833333   0.0000000), wk =   0.0069444
        k(   63) = (   0.2083333   0.1666667   0.0000000), wk =   0.0069444
        k(   64) = (   0.2083333   0.2500000   0.0000000), wk =   0.0069444
        k(   65) = (   0.2083333   0.3333333   0.0000000), wk =   0.0069444
        k(   66) = (   0.2083333   0.4166667   0.0000000), wk =   0.0069444
        k(   67) = (   0.2083333   0.5000000   0.0000000), wk =   0.0069444
        k(   68) = (   0.2083333   0.5833333   0.0000000), wk =   0.0069444
        k(   69) = (   0.2083333   0.6666667   0.0000000), wk =   0.0069444
        k(   70) = (   0.2083333   0.7500000   0.0000000), wk =   0.0069444
        k(   71) = (   0.2083333   0.8333333   0.0000000), wk =   0.0069444
        k(   72) = (   0.2083333   0.9166667   0.0000000), wk =   0.0069444
        k(   73) = (   0.2500000   0.0000000   0.0000000), wk =   0.0069444
        k(   74) = (   0.2500000   0.0833333   0.0000000), wk =   0.0069444
        k(   75) = (   0.2500000   0.1666667   0.0000000), wk =   0.0069444
        k(   76) = (   0.2500000   0.2500000   0.0000000), wk =   0.0069444
        k(   77) = (   0.2500000   0.3333333   0.0000000), wk =   0.0069444
        k(   78) = (   0.2500000   0.4166667   0.0000000), wk =   0.0069444
        k(   79) = (   0.2500000   0.5000000   0.0000000), wk =   0.0069444
        k(   80) = (   0.2500000   0.5833333   0.0000000), wk =   0.0069444
        k(   81) = (   0.2500000   0.6666667   0.0000000), wk =   0.0069444
        k(   82) = (   0.2500000   0.7500000   0.0000000), wk =   0.0069444
        k(   83) = (   0.2500000   0.8333333   0.0000000), wk =   0.0069444
        k(   84) = (   0.2500000   0.9166667   0.0000000), wk =   0.0069444
        k(   85) = (   0.2916667   0.0000000   0.0000000), wk =   0.0069444
        k(   86) = (   0.2916667   0.0833333   0.0000000), wk =   0.0069444
        k(   87) = (   0.2916667   0.1666667   0.0000000), wk =   0.0069444
        k(   88) = (   0.2916667   0.2500000   0.0000000), wk =   0.0069444
        k(   89) = (   0.2916667   0.3333333   0.0000000), wk =   0.0069444
        k(   90) = (   0.2916667   0.4166667   0.0000000), wk =   0.0069444
        k(   91) = (   0.2916667   0.5000000   0.0000000), wk =   0.0069444
        k(   92) = (   0.2916667   0.5833333   0.0000000), wk =   0.0069444
        k(   93) = (   0.2916667   0.6666667   0.0000000), wk =   0.0069444
        k(   94) = (   0.2916667   0.7500000   0.0000000), wk =   0.0069444
        k(   95) = (   0.2916667   0.8333333   0.0000000), wk =   0.0069444
        k(   96) = (   0.2916667   0.9166667   0.0000000), wk =   0.0069444
        k(   97) = (   0.3333333   0.0000000   0.0000000), wk =   0.0069444
        k(   98) = (   0.3333333   0.0833333   0.0000000), wk =   0.0069444
        k(   99) = (   0.3333333   0.1666667   0.0000000), wk =   0.0069444
        k(  100) = (   0.3333333   0.2500000   0.0000000), wk =   0.0069444
        k(  101) = (   0.3333333   0.3333333   0.0000000), wk =   0.0069444
        k(  102) = (   0.3333333   0.4166667   0.0000000), wk =   0.0069444
        k(  103) = (   0.3333333   0.5000000   0.0000000), wk =   0.0069444
        k(  104) = (   0.3333333   0.5833333   0.0000000), wk =   0.0069444
        k(  105) = (   0.3333333   0.6666667   0.0000000), wk =   0.0069444
        k(  106) = (   0.3333333   0.7500000   0.0000000), wk =   0.0069444
        k(  107) = (   0.3333333   0.8333333   0.0000000), wk =   0.0069444
        k(  108) = (   0.3333333   0.9166667   0.0000000), wk =   0.0069444
        k(  109) = (   0.3750000   0.0000000   0.0000000), wk =   0.0069444
        k(  110) = (   0.3750000   0.0833333   0.0000000), wk =   0.0069444
        k(  111) = (   0.3750000   0.1666667   0.0000000), wk =   0.0069444
        k(  112) = (   0.3750000   0.2500000   0.0000000), wk =   0.0069444
        k(  113) = (   0.3750000   0.3333333   0.0000000), wk =   0.0069444
        k(  114) = (   0.3750000   0.4166667   0.0000000), wk =   0.0069444
        k(  115) = (   0.3750000   0.5000000   0.0000000), wk =   0.0069444
        k(  116) = (   0.3750000   0.5833333   0.0000000), wk =   0.0069444
        k(  117) = (   0.3750000   0.6666667   0.0000000), wk =   0.0069444
        k(  118) = (   0.3750000   0.7500000   0.0000000), wk =   0.0069444
        k(  119) = (   0.3750000   0.8333333   0.0000000), wk =   0.0069444
        k(  120) = (   0.3750000   0.9166667   0.0000000), wk =   0.0069444
        k(  121) = (   0.4166667   0.0000000   0.0000000), wk =   0.0069444
        k(  122) = (   0.4166667   0.0833333   0.0000000), wk =   0.0069444
        k(  123) = (   0.4166667   0.1666667   0.0000000), wk =   0.0069444
        k(  124) = (   0.4166667   0.2500000   0.0000000), wk =   0.0069444
        k(  125) = (   0.4166667   0.3333333   0.0000000), wk =   0.0069444
        k(  126) = (   0.4166667   0.4166667   0.0000000), wk =   0.0069444
        k(  127) = (   0.4166667   0.5000000   0.0000000), wk =   0.0069444
        k(  128) = (   0.4166667   0.5833333   0.0000000), wk =   0.0069444
        k(  129) = (   0.4166667   0.6666667   0.0000000), wk =   0.0069444
        k(  130) = (   0.4166667   0.7500000   0.0000000), wk =   0.0069444
        k(  131) = (   0.4166667   0.8333333   0.0000000), wk =   0.0069444
        k(  132) = (   0.4166667   0.9166667   0.0000000), wk =   0.0069444
        k(  133) = (   0.4583333   0.0000000   0.0000000), wk =   0.0069444
        k(  134) = (   0.4583333   0.0833333   0.0000000), wk =   0.0069444
        k(  135) = (   0.4583333   0.1666667   0.0000000), wk =   0.0069444
        k(  136) = (   0.4583333   0.2500000   0.0000000), wk =   0.0069444
        k(  137) = (   0.4583333   0.3333333   0.0000000), wk =   0.0069444
        k(  138) = (   0.4583333   0.4166667   0.0000000), wk =   0.0069444
        k(  139) = (   0.4583333   0.5000000   0.0000000), wk =   0.0069444
        k(  140) = (   0.4583333   0.5833333   0.0000000), wk =   0.0069444
        k(  141) = (   0.4583333   0.6666667   0.0000000), wk =   0.0069444
        k(  142) = (   0.4583333   0.7500000   0.0000000), wk =   0.0069444
        k(  143) = (   0.4583333   0.8333333   0.0000000), wk =   0.0069444
        k(  144) = (   0.4583333   0.9166667   0.0000000), wk =   0.0069444
        k(  145) = (   0.5000000   0.0000000   0.0000000), wk =   0.0069444
        k(  146) = (   0.5000000   0.0833333   0.0000000), wk =   0.0069444
        k(  147) = (   0.5000000   0.1666667   0.0000000), wk =   0.0069444
        k(  148) = (   0.5000000   0.2500000   0.0000000), wk =   0.0069444
        k(  149) = (   0.5000000   0.3333333   0.0000000), wk =   0.0069444
        k(  150) = (   0.5000000   0.4166667   0.0000000), wk =   0.0069444
        k(  151) = (   0.5000000   0.5000000   0.0000000), wk =   0.0069444
        k(  152) = (   0.5000000   0.5833333   0.0000000), wk =   0.0069444
        k(  153) = (   0.5000000   0.6666667   0.0000000), wk =   0.0069444
        k(  154) = (   0.5000000   0.7500000   0.0000000), wk =   0.0069444
        k(  155) = (   0.5000000   0.8333333   0.0000000), wk =   0.0069444
        k(  156) = (   0.5000000   0.9166667   0.0000000), wk =   0.0069444
        k(  157) = (   0.5416667   0.0000000   0.0000000), wk =   0.0069444
        k(  158) = (   0.5416667   0.0833333   0.0000000), wk =   0.0069444
        k(  159) = (   0.5416667   0.1666667   0.0000000), wk =   0.0069444
        k(  160) = (   0.5416667   0.2500000   0.0000000), wk =   0.0069444
        k(  161) = (   0.5416667   0.3333333   0.0000000), wk =   0.0069444
        k(  162) = (   0.5416667   0.4166667   0.0000000), wk =   0.0069444
        k(  163) = (   0.5416667   0.5000000   0.0000000), wk =   0.0069444
        k(  164) = (   0.5416667   0.5833333   0.0000000), wk =   0.0069444
        k(  165) = (   0.5416667   0.6666667   0.0000000), wk =   0.0069444
        k(  166) = (   0.5416667   0.7500000   0.0000000), wk =   0.0069444
        k(  167) = (   0.5416667   0.8333333   0.0000000), wk =   0.0069444
        k(  168) = (   0.5416667   0.9166667   0.0000000), wk =   0.0069444
        k(  169) = (   0.5833333   0.0000000   0.0000000), wk =   0.0069444
        k(  170) = (   0.5833333   0.0833333   0.0000000), wk =   0.0069444
        k(  171) = (   0.5833333   0.1666667   0.0000000), wk =   0.0069444
        k(  172) = (   0.5833333   0.2500000   0.0000000), wk =   0.0069444
        k(  173) = (   0.5833333   0.3333333   0.0000000), wk =   0.0069444
        k(  174) = (   0.5833333   0.4166667   0.0000000), wk =   0.0069444
        k(  175) = (   0.5833333   0.5000000   0.0000000), wk =   0.0069444
        k(  176) = (   0.5833333   0.5833333   0.0000000), wk =   0.0069444
        k(  177) = (   0.5833333   0.6666667   0.0000000), wk =   0.0069444
        k(  178) = (   0.5833333   0.7500000   0.0000000), wk =   0.0069444
        k(  179) = (   0.5833333   0.8333333   0.0000000), wk =   0.0069444
        k(  180) = (   0.5833333   0.9166667   0.0000000), wk =   0.0069444
        k(  181) = (   0.6250000   0.0000000   0.0000000), wk =   0.0069444
        k(  182) = (   0.6250000   0.0833333   0.0000000), wk =   0.0069444
        k(  183) = (   0.6250000   0.1666667   0.0000000), wk =   0.0069444
        k(  184) = (   0.6250000   0.2500000   0.0000000), wk =   0.0069444
        k(  185) = (   0.6250000   0.3333333   0.0000000), wk =   0.0069444
        k(  186) = (   0.6250000   0.4166667   0.0000000), wk =   0.0069444
        k(  187) = (   0.6250000   0.5000000   0.0000000), wk =   0.0069444
        k(  188) = (   0.6250000   0.5833333   0.0000000), wk =   0.0069444
        k(  189) = (   0.6250000   0.6666667   0.0000000), wk =   0.0069444
        k(  190) = (   0.6250000   0.7500000   0.0000000), wk =   0.0069444
        k(  191) = (   0.6250000   0.8333333   0.0000000), wk =   0.0069444
        k(  192) = (   0.6250000   0.9166667   0.0000000), wk =   0.0069444
        k(  193) = (   0.6666667   0.0000000   0.0000000), wk =   0.0069444
        k(  194) = (   0.6666667   0.0833333   0.0000000), wk =   0.0069444
        k(  195) = (   0.6666667   0.1666667   0.0000000), wk =   0.0069444
        k(  196) = (   0.6666667   0.2500000   0.0000000), wk =   0.0069444
        k(  197) = (   0.6666667   0.3333333   0.0000000), wk =   0.0069444
        k(  198) = (   0.6666667   0.4166667   0.0000000), wk =   0.0069444
        k(  199) = (   0.6666667   0.5000000   0.0000000), wk =   0.0069444
        k(  200) = (   0.6666667   0.5833333   0.0000000), wk =   0.0069444
        k(  201) = (   0.6666667   0.6666667   0.0000000), wk =   0.0069444
        k(  202) = (   0.6666667   0.7500000   0.0000000), wk =   0.0069444
        k(  203) = (   0.6666667   0.8333333   0.0000000), wk =   0.0069444
        k(  204) = (   0.6666667   0.9166667   0.0000000), wk =   0.0069444
        k(  205) = (   0.7083333   0.0000000   0.0000000), wk =   0.0069444
        k(  206) = (   0.7083333   0.0833333   0.0000000), wk =   0.0069444
        k(  207) = (   0.7083333   0.1666667   0.0000000), wk =   0.0069444
        k(  208) = (   0.7083333   0.2500000   0.0000000), wk =   0.0069444
        k(  209) = (   0.7083333   0.3333333   0.0000000), wk =   0.0069444
        k(  210) = (   0.7083333   0.4166667   0.0000000), wk =   0.0069444
        k(  211) = (   0.7083333   0.5000000   0.0000000), wk =   0.0069444
        k(  212) = (   0.7083333   0.5833333   0.0000000), wk =   0.0069444
        k(  213) = (   0.7083333   0.6666667   0.0000000), wk =   0.0069444
        k(  214) = (   0.7083333   0.7500000   0.0000000), wk =   0.0069444
        k(  215) = (   0.7083333   0.8333333   0.0000000), wk =   0.0069444
        k(  216) = (   0.7083333   0.9166667   0.0000000), wk =   0.0069444
        k(  217) = (   0.7500000   0.0000000   0.0000000), wk =   0.0069444
        k(  218) = (   0.7500000   0.0833333   0.0000000), wk =   0.0069444
        k(  219) = (   0.7500000   0.1666667   0.0000000), wk =   0.0069444
        k(  220) = (   0.7500000   0.2500000   0.0000000), wk =   0.0069444
        k(  221) = (   0.7500000   0.3333333   0.0000000), wk =   0.0069444
        k(  222) = (   0.7500000   0.4166667   0.0000000), wk =   0.0069444
        k(  223) = (   0.7500000   0.5000000   0.0000000), wk =   0.0069444
        k(  224) = (   0.7500000   0.5833333   0.0000000), wk =   0.0069444
        k(  225) = (   0.7500000   0.6666667   0.0000000), wk =   0.0069444
        k(  226) = (   0.7500000   0.7500000   0.0000000), wk =   0.0069444
        k(  227) = (   0.7500000   0.8333333   0.0000000), wk =   0.0069444
        k(  228) = (   0.7500000   0.9166667   0.0000000), wk =   0.0069444
        k(  229) = (   0.7916667   0.0000000   0.0000000), wk =   0.0069444
        k(  230) = (   0.7916667   0.0833333   0.0000000), wk =   0.0069444
        k(  231) = (   0.7916667   0.1666667   0.0000000), wk =   0.0069444
        k(  232) = (   0.7916667   0.2500000   0.0000000), wk =   0.0069444
        k(  233) = (   0.7916667   0.3333333   0.0000000), wk =   0.0069444
        k(  234) = (   0.7916667   0.4166667   0.0000000), wk =   0.0069444
        k(  235) = (   0.7916667   0.5000000   0.0000000), wk =   0.0069444
        k(  236) = (   0.7916667   0.5833333   0.0000000), wk =   0.0069444
        k(  237) = (   0.7916667   0.6666667   0.0000000), wk =   0.0069444
        k(  238) = (   0.7916667   0.7500000   0.0000000), wk =   0.0069444
        k(  239) = (   0.7916667   0.8333333   0.0000000), wk =   0.0069444
        k(  240) = (   0.7916667   0.9166667   0.0000000), wk =   0.0069444
        k(  241) = (   0.8333333   0.0000000   0.0000000), wk =   0.0069444
        k(  242) = (   0.8333333   0.0833333   0.0000000), wk =   0.0069444
        k(  243) = (   0.8333333   0.1666667   0.0000000), wk =   0.0069444
        k(  244) = (   0.8333333   0.2500000   0.0000000), wk =   0.0069444
        k(  245) = (   0.8333333   0.3333333   0.0000000), wk =   0.0069444
        k(  246) = (   0.8333333   0.4166667   0.0000000), wk =   0.0069444
        k(  247) = (   0.8333333   0.5000000   0.0000000), wk =   0.0069444
        k(  248) = (   0.8333333   0.5833333   0.0000000), wk =   0.0069444
        k(  249) = (   0.8333333   0.6666667   0.0000000), wk =   0.0069444
        k(  250) = (   0.8333333   0.7500000   0.0000000), wk =   0.0069444
        k(  251) = (   0.8333333   0.8333333   0.0000000), wk =   0.0069444
        k(  252) = (   0.8333333   0.9166667   0.0000000), wk =   0.0069444
        k(  253) = (   0.8750000   0.0000000   0.0000000), wk =   0.0069444
        k(  254) = (   0.8750000   0.0833333   0.0000000), wk =   0.0069444
        k(  255) = (   0.8750000   0.1666667   0.0000000), wk =   0.0069444
        k(  256) = (   0.8750000   0.2500000   0.0000000), wk =   0.0069444
        k(  257) = (   0.8750000   0.3333333   0.0000000), wk =   0.0069444
        k(  258) = (   0.8750000   0.4166667   0.0000000), wk =   0.0069444
        k(  259) = (   0.8750000   0.5000000   0.0000000), wk =   0.0069444
        k(  260) = (   0.8750000   0.5833333   0.0000000), wk =   0.0069444
        k(  261) = (   0.8750000   0.6666667   0.0000000), wk =   0.0069444
        k(  262) = (   0.8750000   0.7500000   0.0000000), wk =   0.0069444
        k(  263) = (   0.8750000   0.8333333   0.0000000), wk =   0.0069444
        k(  264) = (   0.8750000   0.9166667   0.0000000), wk =   0.0069444
        k(  265) = (   0.9166667   0.0000000   0.0000000), wk =   0.0069444
        k(  266) = (   0.9166667   0.0833333   0.0000000), wk =   0.0069444
        k(  267) = (   0.9166667   0.1666667   0.0000000), wk =   0.0069444
        k(  268) = (   0.9166667   0.2500000   0.0000000), wk =   0.0069444
        k(  269) = (   0.9166667   0.3333333   0.0000000), wk =   0.0069444
        k(  270) = (   0.9166667   0.4166667   0.0000000), wk =   0.0069444
        k(  271) = (   0.9166667   0.5000000   0.0000000), wk =   0.0069444
        k(  272) = (   0.9166667   0.5833333   0.0000000), wk =   0.0069444
        k(  273) = (   0.9166667   0.6666667   0.0000000), wk =   0.0069444
        k(  274) = (   0.9166667   0.7500000   0.0000000), wk =   0.0069444
        k(  275) = (   0.9166667   0.8333333   0.0000000), wk =   0.0069444
        k(  276) = (   0.9166667   0.9166667   0.0000000), wk =   0.0069444
        k(  277) = (   0.9583333   0.0000000   0.0000000), wk =   0.0069444
        k(  278) = (   0.9583333   0.0833333   0.0000000), wk =   0.0069444
        k(  279) = (   0.9583333   0.1666667   0.0000000), wk =   0.0069444
        k(  280) = (   0.9583333   0.2500000   0.0000000), wk =   0.0069444
        k(  281) = (   0.9583333   0.3333333   0.0000000), wk =   0.0069444
        k(  282) = (   0.9583333   0.4166667   0.0000000), wk =   0.0069444
        k(  283) = (   0.9583333   0.5000000   0.0000000), wk =   0.0069444
        k(  284) = (   0.9583333   0.5833333   0.0000000), wk =   0.0069444
        k(  285) = (   0.9583333   0.6666667   0.0000000), wk =   0.0069444
        k(  286) = (   0.9583333   0.7500000   0.0000000), wk =   0.0069444
        k(  287) = (   0.9583333   0.8333333   0.0000000), wk =   0.0069444
        k(  288) = (   0.9583333   0.9166667   0.0000000), wk =   0.0069444

     Dense  grid:   104149 G-vectors     FFT dimensions: (  24,  40, 225)

     Dynamical RAM for                 wfc:       5.01 MB

     Dynamical RAM for     wfc (w. buffer):       5.01 MB

     Dynamical RAM for           str. fact:       0.40 MB

     Dynamical RAM for           local pot:       0.00 MB

     Dynamical RAM for          nlocal pot:       1.59 MB

     Dynamical RAM for                qrad:       0.26 MB

     Dynamical RAM for          rho,v,vnew:       2.44 MB

     Dynamical RAM for           G-vectors:       1.69 MB

     Dynamical RAM for          h,s,v(r/c):       7.47 MB

     Dynamical RAM for          <psi|beta>:       0.05 MB

     Dynamical RAM for                 psi:      20.03 MB

     Dynamical RAM for                hpsi:      20.03 MB

     Dynamical RAM for      wfcinit/wfcrot:      10.25 MB

     Estimated static dynamical RAM per process >      14.27 MB

     Estimated max dynamical RAM per process >      61.86 MB

     Estimated total dynamical RAM >     989.78 MB

     The potential is recalculated from file :
     ./slab.save/charge-density

     Starting wfcs are   16 randomized atomic wfcs +   85 random wfcs

     Band Structure Calculation
     Davidson diagonalization with overlap

     Computing kpt #:     1
     total cpu time spent up to now is        7.8 secs

     Computing kpt #:     2
     total cpu time spent up to now is       13.7 secs

     Computing kpt #:     3
     total cpu time spent up to now is       19.5 secs

     Computing kpt #:     4
     total cpu time spent up to now is       25.3 secs

     Computing kpt #:     5
     total cpu time spent up to now is       31.3 secs

     Computing kpt #:     6
     total cpu time spent up to now is       37.7 secs

     Computing kpt #:     7
     total cpu time spent up to now is       43.5 secs

     Computing kpt #:     8
     total cpu time spent up to now is       49.2 secs

     Computing kpt #:     9
     total cpu time spent up to now is       55.0 secs

     Computing kpt #:    10
     total cpu time spent up to now is       60.9 secs

     Computing kpt #:    11
     total cpu time spent up to now is       66.7 secs

     Computing kpt #:    12
     total cpu time spent up to now is       72.7 secs

     Computing kpt #:    13
     total cpu time spent up to now is       78.8 secs

     Computing kpt #:    14
     total cpu time spent up to now is       84.6 secs

     Computing kpt #:    15
     total cpu time spent up to now is       90.3 secs

     Computing kpt #:    16
     total cpu time spent up to now is       95.9 secs

     Computing kpt #:    17
     total cpu time spent up to now is      101.7 secs

     Computing kpt #:    18
     total cpu time spent up to now is      107.4 secs

     Computing kpt #:    19
     total cpu time spent up to now is      113.3 secs

     Computing kpt #:    20
     total cpu time spent up to now is      119.0 secs

     Computing kpt #:    21
     total cpu time spent up to now is      124.7 secs

     Computing kpt #:    22
     total cpu time spent up to now is      130.3 secs

     Computing kpt #:    23
     total cpu time spent up to now is      136.1 secs

     Computing kpt #:    24
     total cpu time spent up to now is      141.8 secs

     Computing kpt #:    25
     total cpu time spent up to now is      147.6 secs

     Computing kpt #:    26
     total cpu time spent up to now is      153.4 secs

     Computing kpt #:    27
     total cpu time spent up to now is      159.1 secs

     Computing kpt #:    28
     total cpu time spent up to now is      164.7 secs

     Computing kpt #:    29
     total cpu time spent up to now is      170.6 secs

     Computing kpt #:    30
     total cpu time spent up to now is      176.3 secs

     Computing kpt #:    31
     total cpu time spent up to now is      182.1 secs

     Computing kpt #:    32
     total cpu time spent up to now is      187.8 secs

     Computing kpt #:    33
     total cpu time spent up to now is      193.6 secs

     Computing kpt #:    34
     total cpu time spent up to now is      199.3 secs

     Computing kpt #:    35
     total cpu time spent up to now is      205.1 secs

     Computing kpt #:    36
     total cpu time spent up to now is      211.1 secs

     Computing kpt #:    37
     total cpu time spent up to now is      216.9 secs

     Computing kpt #:    38
     total cpu time spent up to now is      222.7 secs

     Computing kpt #:    39
     total cpu time spent up to now is      228.8 secs

     Computing kpt #:    40
     total cpu time spent up to now is      234.5 secs

     Computing kpt #:    41
     total cpu time spent up to now is      240.1 secs

     Computing kpt #:    42
     total cpu time spent up to now is      245.9 secs

     Computing kpt #:    43
     total cpu time spent up to now is      252.0 secs

     Computing kpt #:    44
     total cpu time spent up to now is      257.8 secs

     Computing kpt #:    45
     total cpu time spent up to now is      263.5 secs

     Computing kpt #:    46
     total cpu time spent up to now is      269.4 secs

     Computing kpt #:    47
     total cpu time spent up to now is      276.3 secs

     Computing kpt #:    48
     total cpu time spent up to now is      282.4 secs

     Computing kpt #:    49
     total cpu time spent up to now is      288.2 secs

     Computing kpt #:    50
     total cpu time spent up to now is      294.0 secs

     Computing kpt #:    51
     total cpu time spent up to now is      299.9 secs

     Computing kpt #:    52
     total cpu time spent up to now is      305.5 secs

     Computing kpt #:    53
     total cpu time spent up to now is      311.4 secs

     Computing kpt #:    54
     total cpu time spent up to now is      317.1 secs

     Computing kpt #:    55
     total cpu time spent up to now is      323.1 secs

     Computing kpt #:    56
     total cpu time spent up to now is      329.0 secs

     Computing kpt #:    57
     total cpu time spent up to now is      335.0 secs

     Computing kpt #:    58
     total cpu time spent up to now is      340.7 secs

     Computing kpt #:    59
     total cpu time spent up to now is      346.5 secs

     Computing kpt #:    60
     total cpu time spent up to now is      352.3 secs

     Computing kpt #:    61
     total cpu time spent up to now is      358.2 secs

     Computing kpt #:    62
     total cpu time spent up to now is      364.1 secs

     Computing kpt #:    63
     total cpu time spent up to now is      369.8 secs

     Computing kpt #:    64
     total cpu time spent up to now is      375.3 secs

     Computing kpt #:    65
     total cpu time spent up to now is      381.0 secs

     Computing kpt #:    66
     total cpu time spent up to now is      386.8 secs

     Computing kpt #:    67
     total cpu time spent up to now is      392.7 secs

     Computing kpt #:    68
     total cpu time spent up to now is      398.5 secs

     Computing kpt #:    69
     total cpu time spent up to now is      404.3 secs

     Computing kpt #:    70
     total cpu time spent up to now is      410.1 secs

     Computing kpt #:    71
     total cpu time spent up to now is      415.8 secs

     Computing kpt #:    72
     total cpu time spent up to now is      421.6 secs

     ethr =  6.25E-09,  avg # of iterations = 15.9

     total cpu time spent up to now is      421.6 secs

     End of band structure calculation

          k = 0.0000 0.0000 0.0000 ( 13011 PWs)   bands (ev):

   -22.2849 -16.9497 -15.9732 -10.3368  -9.0792  -5.6119  -5.6119  -4.9685
    -0.8597   0.6370   1.4072   1.6670   2.2691   2.6053   3.7502   4.2137
     5.0834   5.8429   5.9736   5.9736   6.4152   8.5063   8.6077   8.7535
     9.1157   9.2033   9.4536   9.6371  10.0104  10.0146  10.4224  10.4660
    10.5668  10.8720  10.8925  11.7210  11.7465  12.0188  12.3938  12.4276
    12.5722  13.4676  14.0821  14.4863  14.5372  15.4719  15.5826  16.5118
    16.7233  17.0430  17.1838  17.8028  18.1666  19.3698  19.5216  19.7239
    19.9301  20.2268  20.2566  21.0055  21.2719  21.6805  23.3857  23.6958
    24.3463  24.7562  24.8797  25.1073  25.7172  26.0425  26.1265  26.1265
    26.4437  26.4457  26.7178  26.7284  26.7683  27.2614  27.5081  27.5622
    27.7254  28.0051  28.5029  28.6950  28.9578  29.1252  29.3157  29.4308
    29.4308  29.4478  29.5356  30.1687  30.9042  30.9740  31.3297  31.5821
    31.6205  31.8218  32.8185  33.0351  33.0351

          k = 0.0000 0.0481 0.0000 ( 13013 PWs)   bands (ev):

   -22.2435 -17.4799 -15.3809 -10.2868  -9.0373  -5.7835  -5.7039  -5.2261
    -0.5366   0.6935   1.4645   1.7250   2.3267   2.6629   3.8074   4.2706
     5.1033   5.8997   5.9959   6.1568   6.4754   7.4247   8.2824   8.5623
     8.6805   8.9677   9.2079   9.2609   9.5664  10.0176  10.4939  10.5590
    10.9384  11.1204  11.4590  11.7757  11.9084  12.3012  12.5366  12.6293
    13.2562  13.2854  13.7888  14.6068  15.4667  15.5236  15.7999  15.9564
    16.5686  16.9157  17.4933  18.1518  18.3777  19.0672  19.4264  19.7559
    19.7661  20.2940  20.3646  21.0613  21.7770  22.1206  23.2037  23.2252
    24.3133  24.9557  25.0115  25.4820  25.6861  25.7227  25.9245  26.0979
    26.3795  26.7764  26.7863  26.8015  26.9386  27.1628  27.5699  27.6202
    27.6964  27.7674  28.1034  28.6321  28.7765  29.0247  29.1831  29.4399
    29.9716  30.0009  30.1175  30.8990  30.9943  31.0533  31.1366  31.3874
    31.6488  31.6742  31.9720  32.2833  32.2973

          k = 0.0000 0.0962 0.0000 ( 13012 PWs)   bands (ev):

   -22.1191 -18.2538 -14.4225 -10.1374  -8.9126  -6.2715  -5.9600  -5.8307
     0.2627   0.8628   1.6363   1.8989   2.4995   2.8356   3.9792   4.4413
     5.1587   6.0384   6.0699   6.2716   6.6525   6.6856   7.1109   7.4641
     8.0142   8.3642   8.5391   8.7306   9.4332   9.4370   9.9309  10.7196
    11.3689  11.3853  11.9391  12.0896  12.3221  12.8004  13.0181  13.3865
    13.8085  13.9118  14.7830  14.8128  15.2041  15.6768  16.0880  16.6482
    16.7384  17.0079  17.2360  18.0522  18.5499  18.9429  19.5962  19.8810
    20.2908  20.7482  20.9554  21.2333  21.8170  21.8668  23.6129  23.8067
    23.8240  24.7959  25.1222  25.1388  25.1689  25.8189  26.1072  26.2644
    26.4219  26.9518  26.9602  26.9792  27.2942  27.3709  27.7524  27.7939
    27.8992  27.9482  27.9937  28.5498  28.5769  29.0216  29.2183  29.3566
    29.6256  29.7223  29.7583  30.4104  30.5619  30.6432  30.7276  30.7899
    30.8054  31.1247  31.2724  31.5606  31.6558

          k = 0.0000 0.1443 0.0000 ( 13034 PWs)   bands (ev):

   -21.9122 -18.9937 -13.3800  -9.8892  -8.7081  -7.0121  -6.5551  -6.3347
     1.1451   1.2996   1.9225   2.1887   2.7872   3.1234   4.2653   4.7255
     5.1062   5.3650   6.0408   6.0533   6.3530   6.3636   6.9287   6.9409
     7.2739   7.5101   7.8657   8.3707   8.8517   9.0098   9.7190  10.3815
    11.0207  11.1155  12.2097  12.6652  12.7653  13.0847  13.7703  13.8427
    14.6819  15.0188  15.3358  15.4489  15.7358  15.9253  16.4737  16.5511
    17.0195  17.0727  17.7899  17.9949  19.2867  19.8788  19.8808  20.0101
    20.6361  20.8838  21.2558  21.5598  22.2276  22.4050  22.6123  23.8409
    24.3712  24.4750  25.1501  25.4893  25.4967  25.7425  26.1599  26.2625
    26.5469  26.9599  27.1433  27.2434  27.2500  27.2705  27.3074  27.3676
    27.7594  28.0061  28.0510  28.0835  28.1923  28.3004  28.3284  28.6366
    29.1915  29.5275  29.6458  29.7040  29.7079  29.7492  29.7707  29.9680
    30.2292  30.6669  30.6706  31.0425  31.3159

          k = 0.0000 0.1925 0.0000 ( 13044 PWs)   bands (ev):

   -21.6233 -19.6701 -12.2913  -9.5434  -8.4282  -7.9307  -7.2824  -6.7744
     1.5402   2.3227   2.4432   2.5945   3.1897   3.5264   4.2339   4.6649
     5.0807   5.1215   5.3593   5.4319   5.9556   6.0091   6.3000   6.7384
     7.0074   7.3399   7.4090   7.8839   8.5704   9.3998   9.4487  10.0616
    10.1171  11.6689  11.9903  12.5846  12.8181  13.4811  13.4964  14.0647
    14.5517  15.6936  16.1377  16.2532  16.3778  16.7271  16.8013  17.4101
    17.6770  17.7457  18.7483  19.3033  19.8167  19.9069  20.0159  20.2735
    21.3267  21.4016  21.6452  21.6576  22.0462  22.9355  23.2820  23.6355
    24.2086  24.4122  24.4211  24.7995  24.9078  25.3494  25.6816  25.8698
    25.9300  26.0490  26.5469  26.9389  27.0327  27.3386  27.4572  27.4717
    27.6507  27.6555  27.6691  27.9377  28.1725  28.3696  28.4635  28.4887
    28.7158  28.7338  28.8308  29.4993  29.5169  29.7013  29.8557  29.8694
    29.9478  30.0503  30.4249  30.4353  30.4383

          k = 0.0000 0.2406 0.0000 ( 13036 PWs)   bands (ev):

   -21.2531 -20.2743 -11.1762  -9.1040  -8.9634  -8.0806  -7.9634  -7.2331
     2.0478   2.8353   3.1162   3.3972   3.5952   3.7059   4.0441   4.2596
     4.5069   5.0990   5.1723   5.3950   5.6025   5.6083   5.9286   5.9789
     6.5573   7.0304   7.2648   7.8511   8.6133   9.2125   9.8082   9.8984
    10.6269  11.2055  11.9795  12.3261  12.6131  13.0572  13.5035  13.9887
    14.2044  15.3275  16.3943  16.6123  17.8518  17.9077  18.1477  18.4735
    18.7775  19.2035  19.2189  19.4725  19.6716  20.7794  20.9718  21.0308
    21.2003  21.4409  22.1153  22.3285  22.4933  22.6004  22.7554  22.9536
    23.1663  23.5639  23.5713  23.5947  23.9039  24.9177  24.9211  25.3439
    25.5791  26.1431  26.3254  26.4686  27.3054  27.4026  27.4892  27.5463
    27.6333  27.6578  27.8692  28.1738  28.1766  28.2241  28.4217  28.5591
    28.8911  28.9433  28.9898  29.0092  29.2198  29.3433  29.5636  29.5676
    29.6160  29.6896  29.7501  30.1987  30.1995

          k = 0.0000 0.2887 0.0000 ( 13052 PWs)   bands (ev):

   -20.8030 -20.8028 -10.0579 -10.0578  -8.5748  -8.5747  -7.6769  -7.6767
     2.6672   2.6673   3.4533   3.4534   3.7537   3.7537   4.3226   4.3226
     4.6753   4.6753   4.8609   4.8611   5.7209   5.7210   5.8223   5.8223
     6.2997   6.2997   7.8838   7.8839   8.4753   8.4754  10.5025  10.5025
    11.1733  11.1735  11.2480  11.2480  12.9941  12.9941  13.6129  13.6129
    14.6054  14.6054  16.8104  16.8104  18.4651  18.4651  18.5049  18.5049
    19.5352  19.5352  20.4778  20.4778  20.5476  20.5476  21.2388  21.2388
    21.3793  21.3793  21.3944  21.3945  22.1165  22.1165  22.6593  22.6593
    23.0502  23.0502  23.1819  23.1819  24.2062  24.2062  24.9778  24.9778
    25.5700  25.5700  26.7287  26.7287  27.1144  27.1145  27.5753  27.5753
    27.9177  27.9177  28.0387  28.0387  28.5364  28.5364  28.5607  28.5607
    28.8127  28.8127  28.8130  28.8130  28.8940  28.8940  29.2511  29.2511
    29.6304  29.6304  29.6447  29.6447  29.8986

          k = 0.0000 0.3368 0.0000 ( 13036 PWs)   bands (ev):

   -21.2531 -20.2743 -11.1762  -9.1040  -8.9634  -8.0806  -7.9634  -7.2331
     2.0478   2.8353   3.1162   3.3972   3.5952   3.7059   4.0441   4.2596
     4.5069   5.0990   5.1723   5.3950   5.6025   5.6083   5.9286   5.9789
     6.5573   7.0304   7.2648   7.8511   8.6133   9.2125   9.8082   9.8984
    10.6269  11.2055  11.9795  12.3261  12.6131  13.0572  13.5035  13.9887
    14.2044  15.3275  16.3943  16.6123  17.8518  17.9077  18.1477  18.4735
    18.7775  19.2035  19.2189  19.4725  19.6716  20.7794  20.9718  21.0308
    21.2003  21.4409  22.1153  22.3285  22.4933  22.6004  22.7554  22.9536
    23.1663  23.5639  23.5713  23.5947  23.9039  24.9177  24.9211  25.3439
    25.5791  26.1431  26.3254  26.4686  27.3054  27.4026  27.4892  27.5463
    27.6333  27.6578  27.8692  28.1738  28.1766  28.2241  28.4217  28.5591
    28.8911  28.9433  28.9898  29.0092  29.2198  29.3433  29.5636  29.5676
    29.6160  29.6896  29.7501  30.1987  30.1995

          k = 0.0000 0.3849 0.0000 ( 13044 PWs)   bands (ev):

   -21.6233 -19.6701 -12.2913  -9.5434  -8.4282  -7.9307  -7.2824  -6.7744
     1.5402   2.3227   2.4432   2.5945   3.1897   3.5264   4.2339   4.6649
     5.0807   5.1215   5.3593   5.4319   5.9556   6.0091   6.3000   6.7384
     7.0074   7.3399   7.4090   7.8839   8.5704   9.3998   9.4487  10.0616
    10.1171  11.6689  11.9903  12.5846  12.8181  13.4811  13.4964  14.0647
    14.5517  15.6936  16.1377  16.2532  16.3778  16.7271  16.8013  17.4101
    17.6770  17.7457  18.7483  19.3033  19.8167  19.9069  20.0159  20.2735
    21.3267  21.4016  21.6452  21.6576  22.0462  22.9355  23.2820  23.6355
    24.2086  24.4122  24.4211  24.7995  24.9078  25.3494  25.6816  25.8698
    25.9300  26.0490  26.5469  26.9389  27.0327  27.3386  27.4572  27.4717
    27.6507  27.6555  27.6691  27.9377  28.1725  28.3696  28.4635  28.4887
    28.7158  28.7338  28.8308  29.4993  29.5169  29.7013  29.8557  29.8694
    29.9478  30.0503  30.4249  30.4353  30.4383

          k = 0.0000 0.4330 0.0000 ( 13034 PWs)   bands (ev):

   -21.9122 -18.9937 -13.3800  -9.8892  -8.7081  -7.0121  -6.5551  -6.3347
     1.1451   1.2996   1.9225   2.1887   2.7872   3.1234   4.2653   4.7255
     5.1062   5.3650   6.0408   6.0533   6.3530   6.3636   6.9287   6.9409
     7.2739   7.5101   7.8657   8.3707   8.8517   9.0098   9.7190  10.3815
    11.0207  11.1155  12.2097  12.6652  12.7653  13.0847  13.7703  13.8427
    14.6819  15.0188  15.3358  15.4489  15.7358  15.9253  16.4737  16.5511
    17.0195  17.0727  17.7899  17.9949  19.2867  19.8788  19.8808  20.0101
    20.6361  20.8838  21.2558  21.5598  22.2276  22.4050  22.6123  23.8409
    24.3712  24.4750  25.1501  25.4893  25.4967  25.7425  26.1599  26.2625
    26.5469  26.9599  27.1433  27.2434  27.2500  27.2705  27.3074  27.3676
    27.7594  28.0061  28.0510  28.0835  28.1923  28.3004  28.3284  28.6366
    29.1915  29.5275  29.6458  29.7040  29.7079  29.7492  29.7707  29.9680
    30.2292  30.6669  30.6706  31.0425  31.3159

          k = 0.0000 0.4811 0.0000 ( 13012 PWs)   bands (ev):

   -22.1191 -18.2538 -14.4225 -10.1374  -8.9126  -6.2715  -5.9600  -5.8307
     0.2627   0.8628   1.6363   1.8989   2.4995   2.8356   3.9792   4.4413
     5.1587   6.0384   6.0699   6.2716   6.6525   6.6856   7.1109   7.4641
     8.0142   8.3642   8.5391   8.7306   9.4332   9.4370   9.9309  10.7196
    11.3689  11.3853  11.9391  12.0896  12.3221  12.8004  13.0181  13.3865
    13.8085  13.9118  14.7830  14.8128  15.2041  15.6768  16.0880  16.6482
    16.7384  17.0079  17.2360  18.0522  18.5499  18.9429  19.5962  19.8810
    20.2908  20.7482  20.9554  21.2333  21.8170  21.8668  23.6129  23.8067
    23.8240  24.7959  25.1222  25.1388  25.1689  25.8189  26.1072  26.2644
    26.4219  26.9518  26.9602  26.9792  27.2942  27.3709  27.7524  27.7939
    27.8992  27.9482  27.9937  28.5498  28.5769  29.0216  29.2183  29.3566
    29.6256  29.7223  29.7583  30.4104  30.5619  30.6432  30.7276  30.7899
    30.8054  31.1247  31.2724  31.5606  31.6558

          k = 0.0000 0.5292 0.0000 ( 13013 PWs)   bands (ev):

   -22.2435 -17.4799 -15.3809 -10.2868  -9.0373  -5.7835  -5.7039  -5.2261
    -0.5366   0.6935   1.4645   1.7250   2.3267   2.6629   3.8074   4.2706
     5.1033   5.8997   5.9959   6.1568   6.4754   7.4247   8.2824   8.5623
     8.6805   8.9677   9.2079   9.2609   9.5664  10.0176  10.4939  10.5590
    10.9384  11.1204  11.4590  11.7757  11.9084  12.3012  12.5366  12.6293
    13.2562  13.2854  13.7888  14.6068  15.4667  15.5236  15.7999  15.9564
    16.5686  16.9157  17.4933  18.1518  18.3777  19.0672  19.4264  19.7559
    19.7661  20.2940  20.3646  21.0613  21.7770  22.1206  23.2037  23.2252
    24.3133  24.9557  25.0115  25.4820  25.6861  25.7227  25.9245  26.0979
    26.3795  26.7764  26.7863  26.8015  26.9386  27.1628  27.5699  27.6202
    27.6964  27.7674  28.1034  28.6321  28.7765  29.0247  29.1831  29.4399
    29.9716  30.0009  30.1175  30.8990  30.9943  31.0533  31.1366  31.3874
    31.6488  31.6742  31.9720  32.2833  32.2973

          k = 0.0417 0.0000 0.0000 ( 13013 PWs)   bands (ev):

   -22.2539 -16.9232 -15.9463 -10.2994  -9.2175  -5.7405  -5.6820  -4.9301
    -0.8685   0.6794   1.4501   1.7105   2.3123   2.6485   3.7931   4.2563
     5.2711   5.8855   5.9924   6.1093   6.4604   8.5483   8.6446   8.7927
     9.0045   9.2465   9.4582   9.6802  10.0536  10.0580  10.4758  10.4950
    10.6102  10.9135  10.9348  11.7519  11.7620  12.0619  12.4317  12.4683
    12.6150  13.4327  14.1250  14.5135  14.5751  15.4949  15.5107  16.5544
    16.7659  16.9520  17.2152  17.8282  17.9433  19.6627  19.6717  19.7557
    19.9722  20.2658  20.3306  21.0473  21.5122  21.7229  23.1539  23.5376
    23.7372  24.3258  24.4721  24.6864  24.9794  25.1435  25.5058  25.5328
    25.7519  25.8550  26.0840  26.2877  26.8748  26.9557  27.6470  28.0451
    28.1644  28.3332  28.8561  28.9807  29.2352  29.4871  29.4948  29.7527
    29.7768  29.8530  30.0272  30.1702  31.0435  31.1678  31.4813  31.6573
    31.7616  31.7652  32.0326  32.3129  32.8514

          k = 0.0417 0.0481 0.0000 ( 13030 PWs)   bands (ev):

   -22.2124 -17.4523 -15.3557 -10.2495  -9.1756  -5.9065  -5.7731  -5.1892
    -0.5454   0.7358   1.5074   1.7685   2.3699   2.7061   3.8504   4.3132
     5.2908   5.9423   6.0159   6.2849   6.5202   7.4649   8.3144   8.6043
     8.7239   8.8582   9.2449   9.3040   9.6088  10.0507  10.5492  10.5715
    10.9669  11.1617  11.5021  11.8166  11.9348  12.3409  12.5497  12.6721
    13.2948  13.3089  13.8212  14.5512  15.5088  15.5621  15.7907  15.9914
    16.6112  16.7897  17.3163  18.3541  18.3985  19.1134  19.1907  19.7965
    20.3095  20.3650  20.4648  21.1035  21.8557  22.1074  23.2199  23.3139
    23.4325  24.2409  24.6332  24.7383  25.0549  25.3618  25.3678  25.5506
    25.6227  25.7449  26.1395  26.8233  26.8885  27.0289  27.5053  27.6834
    27.9854  28.6219  28.6676  28.9150  29.0921  29.3591  29.6380  29.8477
    30.1315  30.2685  30.3238  30.3719  31.0484  31.0650  31.1592  31.2381
    31.6823  31.7120  31.7166  31.7403  32.0972

          k = 0.0417 0.0962 0.0000 ( 13021 PWs)   bands (ev):

   -22.0880 -18.2251 -14.3999 -10.0998  -9.0507  -6.3691  -6.0406  -5.7952
     0.2516   0.9052   1.6793   1.9424   2.5426   2.8788   4.0222   4.4840
     5.3450   6.0970   6.1125   6.3141   6.6970   6.7557   7.1474   7.5075
     8.0539   8.4070   8.4366   8.7721   9.4711   9.4763   9.9730  10.7844
    11.3755  11.4027  11.9798  12.1307  12.3221  12.8431  13.0602  13.3993
    13.8383  13.9270  14.8007  14.8465  15.1886  15.7145  16.0060  16.4047
    16.7807  17.2699  17.2737  18.0982  18.3580  19.0405  19.7530  19.9042
    20.5591  20.8362  20.9900  21.2781  21.8806  21.9337  23.4815  23.4935
    23.7111  23.9452  24.8202  24.8963  24.9127  25.0332  25.2138  25.5834
    25.8045  25.9673  26.3061  26.9195  27.2027  27.3149  27.6513  27.8986
    27.9293  28.5438  28.5726  28.9142  29.0912  29.2938  29.3167  29.5485
    29.7510  29.8051  29.8330  30.0299  30.2836  30.4960  30.5093  30.6067
    30.6981  30.8762  31.0243  31.3728  31.3989

          k = 0.0417 0.1443 0.0000 ( 13012 PWs)   bands (ev):

   -21.8812 -18.9643 -13.3606  -9.8515  -8.8451  -7.0780  -6.5196  -6.4308
     1.1875   1.2841   1.9655   2.2322   2.8304   3.1666   4.3082   4.7685
     5.1868   5.5134   6.0793   6.1600   6.3956   6.4071   6.9695   6.9852
     7.3171   7.4957   7.7732   8.4087   8.8943   9.0511   9.7622  10.4110
    11.0623  11.2059  12.2496  12.6102  12.7405  13.1271  13.8103  13.8337
    14.7042  15.0273  15.0903  15.6236  15.7203  15.9602  16.5879  16.6452
    17.0615  17.1123  17.6776  18.0800  19.1608  19.9235  19.9996  20.1166
    20.8185  20.9125  21.3151  21.6155  22.2738  22.4034  22.4317  23.7611
    24.0623  24.5153  24.5560  25.0257  25.1544  25.2137  25.6325  25.7918
    26.0709  26.0837  26.2881  26.5886  26.9383  27.3120  27.3622  27.3798
    27.5223  28.0521  28.1450  28.2189  28.2998  28.3387  28.5474  29.1096
    29.3832  29.3951  29.4243  29.5331  29.7046  29.7656  29.8172  29.9358
    30.0682  30.1560  30.2832  30.3084  30.3916

          k = 0.0417 0.1925 0.0000 ( 13029 PWs)   bands (ev):

   -21.5924 -19.6402 -12.2766  -9.5066  -8.5635  -7.9691  -7.2469  -6.8844
     1.5827   2.3656   2.4204   2.6380   3.2329   3.5696   4.2778   4.7078
     5.1198   5.1653   5.4156   5.6028   5.9969   6.1521   6.3442   6.7765
     6.9300   7.3836   7.4487   7.9268   8.4652   9.4403   9.4844  10.1037
    10.1605  11.8059  12.0104  12.6226  12.8379  13.0328  13.5233  14.4572
    14.4769  15.7174  16.1824  16.2793  16.4399  16.7957  16.8094  17.4517
    17.6161  17.7976  18.7512  19.3443  19.6789  19.7622  20.0521  20.4700
    21.4370  21.4984  21.6263  21.6824  22.0981  23.1346  23.3303  23.5514
    24.2361  24.3324  24.4940  24.5091  24.9015  24.9495  25.3959  25.5028
    25.6048  25.9038  26.0413  26.0830  26.2535  26.5594  26.9277  26.9714
    27.2505  27.4174  27.5894  27.8141  27.8160  27.9442  27.9789  28.4115
    28.6989  28.7339  28.7953  29.2959  29.3798  29.3869  29.6753  29.7649
    29.7872  29.9197  29.9257  30.3229  30.4882

          k = 0.0417 0.2406 0.0000 ( 13037 PWs)   bands (ev):

   -21.2224 -20.2442 -11.1688  -9.0673  -8.9805  -8.2131  -7.9278  -7.3541
     2.0903   2.8782   3.1597   3.4401   3.5692   3.7491   4.0875   4.2918
     4.5505   5.1397   5.2152   5.4531   5.6625   5.7702   5.9132   6.0835
     6.5977   7.0739   7.3047   7.8942   8.6517   9.2549   9.6071   9.9376
    10.6710  11.2374  11.9974  12.1373  12.5340  13.0912  13.9908  14.0306
    14.1980  15.3687  16.2537  16.6091  17.8938  17.9488  18.1818  18.5165
    18.8010  18.9977  19.2425  19.5137  19.5568  20.6128  21.0691  21.2354
    21.4663  21.4668  22.1346  22.3641  22.5429  22.6436  22.8829  22.9610
    23.1920  23.6202  23.6846  23.7134  23.9153  24.4859  25.0229  25.3487
    25.4609  25.6098  26.0967  26.1397  26.1659  26.5084  26.5486  26.8292
    27.0805  27.2018  27.4448  27.5224  27.5656  27.6282  27.6887  28.1208
    28.1343  28.4438  28.4725  28.8506  29.0944  29.1145  29.2484  29.7710
    29.8705  30.0057  30.1133  30.1806  30.3171

          k = 0.0417 0.2887 0.0000 ( 13024 PWs)   bands (ev):

   -20.7724 -20.7723 -10.0602 -10.0602  -8.5386  -8.5384  -7.8047  -7.8045
     2.7099   2.7099   3.4963   3.4964   3.7973   3.7973   4.3644   4.3644
     4.7192   4.7192   4.8137   4.8138   5.8614   5.8614   5.8920   5.8922
     6.3488   6.3488   7.9236   7.9236   8.5181   8.5181  10.5394  10.5394
    10.8548  10.8549  11.2953  11.2954  13.3050  13.3051  13.6369  13.6370
    14.6471  14.6471  16.7087  16.7088  18.3798  18.3798  18.5452  18.5452
    19.5715  19.5715  20.4834  20.4834  20.5209  20.5209  21.1240  21.1240
    21.4197  21.4197  21.7320  21.7320  22.1725  22.1725  22.6789  22.6789
    23.0913  23.0913  23.3343  23.3343  24.1249  24.1249  25.0812  25.0812
    25.3807  25.3807  26.0741  26.0741  26.5890  26.5890  26.7850  26.7850
    26.7915  26.7915  27.3712  27.3713  27.6768  27.6768  28.0779  28.0779
    28.0859  28.0859  28.3135  28.3135  28.8700  28.8700  29.1155  29.1155
    29.9613  29.9613  29.9960  29.9960  30.9546

          k = 0.0417 0.3368 0.0000 ( 13037 PWs)   bands (ev):

   -21.2224 -20.2442 -11.1688  -9.0673  -8.9805  -8.2131  -7.9278  -7.3541
     2.0903   2.8782   3.1597   3.4401   3.5692   3.7491   4.0875   4.2918
     4.5505   5.1397   5.2152   5.4531   5.6625   5.7702   5.9132   6.0835
     6.5977   7.0739   7.3047   7.8942   8.6517   9.2549   9.6071   9.9376
    10.6710  11.2374  11.9974  12.1372  12.5340  13.0912  13.9908  14.0306
    14.1980  15.3687  16.2537  16.6091  17.8938  17.9488  18.1818  18.5165
    18.8010  18.9977  19.2425  19.5137  19.5568  20.6128  21.0691  21.2354
    21.4663  21.4668  22.1346  22.3641  22.5429  22.6436  22.8829  22.9610
    23.1920  23.6202  23.6846  23.7134  23.9153  24.4859  25.0229  25.3487
    25.4609  25.6098  26.0967  26.1397  26.1659  26.5084  26.5486  26.8292
    27.0805  27.2018  27.4448  27.5224  27.5656  27.6282  27.6887  28.1208
    28.1343  28.4438  28.4725  28.8506  29.0944  29.1145  29.2484  29.7710
    29.8705  30.0057  30.1133  30.1806  30.3171

          k = 0.0417 0.3849 0.0000 ( 13029 PWs)   bands (ev):

   -21.5924 -19.6402 -12.2766  -9.5066  -8.5635  -7.9691  -7.2469  -6.8844
     1.5827   2.3656   2.4204   2.6380   3.2329   3.5696   4.2778   4.7078
     5.1198   5.1653   5.4156   5.6028   5.9969   6.1521   6.3442   6.7765
     6.9300   7.3836   7.4487   7.9268   8.4652   9.4403   9.4844  10.1037
    10.1605  11.8059  12.0104  12.6226  12.8379  13.0328  13.5233  14.4572
    14.4769  15.7174  16.1824  16.2793  16.4399  16.7957  16.8094  17.4517
    17.6161  17.7976  18.7512  19.3443  19.6789  19.7622  20.0521  20.4700
    21.4370  21.4984  21.6263  21.6824  22.0981  23.1346  23.3303  23.5514
    24.2361  24.3324  24.4940  24.5091  24.9015  24.9495  25.3959  25.5028
    25.6048  25.9038  26.0413  26.0830  26.2535  26.5594  26.9277  26.9714
    27.2505  27.4174  27.5894  27.8141  27.8160  27.9442  27.9789  28.4115
    28.6989  28.7339  28.7953  29.2959  29.3798  29.3869  29.6753  29.7649
    29.7872  29.9197  29.9257  30.3229  30.4882

          k = 0.0417 0.4330 0.0000 ( 13012 PWs)   bands (ev):

   -21.8812 -18.9643 -13.3606  -9.8515  -8.8451  -7.0780  -6.5196  -6.4308
     1.1875   1.2841   1.9655   2.2322   2.8304   3.1666   4.3082   4.7685
     5.1868   5.5134   6.0793   6.1600   6.3956   6.4071   6.9695   6.9852
     7.3171   7.4957   7.7732   8.4087   8.8943   9.0511   9.7622  10.4110
    11.0623  11.2059  12.2496  12.6102  12.7405  13.1271  13.8103  13.8337
    14.7042  15.0273  15.0903  15.6236  15.7203  15.9602  16.5879  16.6452
    17.0615  17.1123  17.6776  18.0800  19.1608  19.9235  19.9996  20.1166
    20.8184  20.9125  21.3151  21.6155  22.2738  22.4034  22.4317  23.7611
    24.0623  24.5153  24.5560  25.0257  25.1544  25.2137  25.6325  25.7918
    26.0709  26.0837  26.2881  26.5886  26.9383  27.3120  27.3622  27.3798
    27.5223  28.0521  28.1450  28.2189  28.2998  28.3387  28.5474  29.1096
    29.3832  29.3951  29.4243  29.5331  29.7046  29.7656  29.8172  29.9358
    30.0682  30.1560  30.2832  30.3084  30.3916

          k = 0.0417 0.4811 0.0000 ( 13021 PWs)   bands (ev):

   -22.0880 -18.2251 -14.3999 -10.0998  -9.0507  -6.3691  -6.0406  -5.7952
     0.2516   0.9052   1.6793   1.9424   2.5426   2.8788   4.0222   4.4840
     5.3450   6.0970   6.1125   6.3141   6.6970   6.7557   7.1474   7.5075
     8.0539   8.4070   8.4366   8.7721   9.4711   9.4763   9.9730  10.7844
    11.3755  11.4027  11.9798  12.1307  12.3221  12.8431  13.0602  13.3993
    13.8383  13.9270  14.8007  14.8465  15.1886  15.7145  16.0060  16.4047
    16.7807  17.2699  17.2737  18.0982  18.3580  19.0405  19.7530  19.9042
    20.5591  20.8362  20.9900  21.2781  21.8806  21.9337  23.4815  23.4935
    23.7111  23.9452  24.8202  24.8963  24.9127  25.0332  25.2138  25.5834
    25.8045  25.9673  26.3061  26.9195  27.2027  27.3149  27.6513  27.8986
    27.9293  28.5438  28.5726  28.9142  29.0912  29.2938  29.3167  29.5485
    29.7510  29.8051  29.8330  30.0299  30.2836  30.4960  30.5093  30.6067
    30.6981  30.8762  31.0243  31.3728  31.3989

          k = 0.0417 0.5292 0.0000 ( 13030 PWs)   bands (ev):

[...]
    24.8527  24.8527  24.8870  24.8870  25.4028  25.4028  25.6274  25.6274
    25.6479  25.6479  26.0406  26.0406  26.8410  26.8410  27.0987  27.0987
    27.3821  27.3821  28.1966  28.1966  28.2938  28.2938  28.4873  28.4873
    29.0383  29.0383  29.5169  29.5169  30.4071

          k = 0.9167 0.3368 0.0000 ( 13038 PWs)   bands (ev):

   -21.1302 -20.1536 -11.1514  -9.0496  -8.9580  -8.5828  -7.8209  -7.6769
     2.2177   3.0068   3.2902   3.4767   3.5680   3.8786   4.2175   4.3975
     4.6812   5.2630   5.3433   5.5941   5.7110   5.8033   6.2779   6.5198
     6.7192   7.2059   7.4265   8.0243   8.7668   9.1780   9.3821  10.0557
    10.8000  11.3291  11.3309  12.1577  13.0085  13.1923  14.1496  14.1564
    14.7289  15.4922  15.9428  16.5768  18.0168  18.0720  18.2895  18.5651
    18.6451  18.8794  19.3585  19.4564  19.6367  20.6307  21.1796  21.3340
    21.5640  21.9764  22.1489  22.4636  22.6554  22.6909  22.7711  23.0806
    23.1919  23.3135  23.7531  23.8658  23.9726  23.9956  24.1799  24.2445
    24.8737  24.9314  25.0134  25.2918  25.4450  25.5280  25.6185  25.6774
    25.9956  26.2302  26.4046  26.4720  26.4870  26.5569  26.9391  27.5618
    27.6674  27.7099  27.7815  27.8132  28.1723  28.4018  28.8146  29.1213
    29.2203  29.4540  29.7572  30.2011  30.2011

          k = 0.9167 0.3849 0.0000 ( 13016 PWs)   bands (ev):

   -21.4997 -19.5506 -12.2360  -9.3961  -8.9437  -8.1134  -7.1636  -7.1412
     1.7099   2.3449   2.4942   2.7685   3.3623   3.6994   4.4073   4.8365
     5.2373   5.2954   5.5497   6.1208   6.1210   6.4813   6.4944   6.6676
     6.9203   7.5159   7.5675   8.0556   8.2826   9.5625   9.5898  10.2298
    10.2894  12.0585  12.1483  12.2664  12.7367  13.0004  13.6500  14.1836
    14.9968  15.8043  16.3114  16.3537  16.6117  16.8430  17.0067  17.5594
    17.5764  17.9526  18.8148  19.3739  19.4636  19.6430  20.1588  20.6531
    21.3702  21.5281  21.7799  22.1895  22.2430  22.3867  23.2726  23.4734
    23.6301  23.7011  23.8190  24.2690  24.4918  24.5202  24.6036  24.8552
    25.0649  25.1289  25.5409  25.5806  25.8511  25.9458  26.0848  26.1479
    26.4324  26.4660  26.4789  27.1123  27.1132  27.2496  27.3833  27.6152
    27.6727  27.9128  28.0340  28.3693  28.4425  28.9625  28.9739  29.1653
    29.6929  29.8029  30.0205  30.1852  30.5068

          k = 0.9167 0.4330 0.0000 ( 13007 PWs)   bands (ev):

   -21.7883 -18.8763 -13.3043  -9.7403  -9.2311  -7.3179  -6.6556  -6.4141
     1.2326   1.3146   2.0942   2.3627   2.9598   3.2963   4.4369   4.8970
     5.3457   6.0155   6.1943   6.3386   6.5231   6.5381   7.0917   7.1173
     7.4467   7.4932   7.6025   8.5215   9.0218   9.1755   9.8909  10.4932
    11.1864  11.4474  12.3692  12.4160  12.6271  13.2545  13.8285  13.9302
    14.6779  14.9748  15.0589  15.7286  15.8114  16.0632  16.7022  17.0007
    17.1873  17.2319  17.5302  18.3293  19.1402  19.9376  20.0427  20.3328
    20.9894  21.1659  21.4680  21.7694  21.7886  21.9925  22.5919  22.8536
    23.2527  23.3155  24.0585  24.0641  24.0887  24.4767  24.6364  25.2327
    25.5197  25.7143  25.9153  26.0950  26.1703  26.6327  26.7581  26.9660
    27.3989  27.4343  27.4594  27.4936  27.6074  27.9356  28.0518  28.3103
    28.3226  28.4203  28.5242  28.8059  29.7909  29.8089  29.8474  29.8769
    29.9476  30.0044  30.0258  30.6502  30.7482

          k = 0.9167 0.4811 0.0000 ( 13028 PWs)   bands (ev):

   -21.9949 -18.1392 -14.3327  -9.9881  -9.4403  -6.6967  -6.2244  -5.6886
     0.2154   1.0322   1.8081   2.0728   2.6721   3.0083   4.1509   4.6121
     5.8746   6.1351   6.2400   6.4454   6.8274   7.0938   7.2551   7.6379
     8.1321   8.1720   8.5357   8.8977   9.5694   9.6051  10.0990  10.9712
    11.3647  11.4463  12.1015  12.2536  12.3227  12.9710  13.1854  13.4356
    13.9174  13.9903  14.8612  14.9234  15.1363  15.8264  15.8714  16.1928
    16.9073  17.3799  17.6240  18.1970  18.2288  19.3155  19.9131  19.9642
    21.0091  21.0517  21.0768  21.4203  21.7222  21.9897  22.2482  22.8705
    22.9629  23.0081  23.7609  23.7982  23.9960  24.0741  24.5038  25.0267
    25.0617  25.2620  25.5148  26.0931  26.4312  27.1865  27.3506  27.4209
    27.6478  27.9079  28.0045  28.5244  28.5357  28.5523  28.7603  29.3601
    29.4619  29.7055  29.8781  29.8782  29.9322  30.5227  30.5612  30.7189
    30.8022  30.8068  31.0200  31.1322  31.2660

          k = 0.9167 0.5292 0.0000 ( 13026 PWs)   bands (ev):

   -22.1191 -17.3695 -15.2809 -10.1374  -9.5669  -6.2715  -5.9600  -5.0778
    -0.5757   0.8628   1.6363   1.8989   2.4995   2.8356   3.9792   4.4413
     5.8279   6.0385   6.0699   6.6525   6.6856   7.5855   8.4045   8.5391
     8.7306   8.8540   9.3526   9.4332   9.7359  10.1484  10.5826  10.7196
    11.0590  11.2855  11.6311  11.9391  12.0061  12.4591  12.5911  12.8004
    13.3818  13.4096  13.9140  14.4356  15.6357  15.6768  15.7363  16.0970
    16.6073  16.7384  17.0946  18.4902  18.6817  19.1255  19.2523  19.8810
    20.5712  20.7482  20.9226  21.2333  21.4905  22.0794  22.1715  22.7917
    22.8293  23.2891  23.6190  23.6795  23.6955  23.8067  24.7959  24.8458
    25.0825  25.1222  25.3284  25.8663  26.2644  26.9139  27.0720  27.3943
    27.7295  27.9937  28.5769  28.6500  29.5035  29.5460  29.7223  29.7583
    30.3660  30.3663  30.4103  30.6432  30.7277  30.7899  31.0384  31.1247
    31.1449  31.2421  31.6558  31.7365  31.8457

          k = 0.9583 0.0000 0.0000 ( 13013 PWs)   bands (ev):

   -22.2539 -16.9232 -15.9463 -10.2994  -9.2175  -5.7405  -5.6820  -4.9301
    -0.8685   0.6794   1.4501   1.7105   2.3123   2.6485   3.7931   4.2563
     5.2711   5.8855   5.9924   6.1093   6.4604   8.5483   8.6446   8.7927
     9.0045   9.2465   9.4582   9.6802  10.0536  10.0580  10.4758  10.4950
    10.6102  10.9135  10.9348  11.7519  11.7620  12.0619  12.4317  12.4683
    12.6150  13.4327  14.1250  14.5135  14.5751  15.4949  15.5107  16.5544
    16.7659  16.9520  17.2152  17.8282  17.9433  19.6627  19.6717  19.7557
    19.9722  20.2658  20.3306  21.0473  21.5122  21.7229  23.1539  23.5376
    23.7372  24.3258  24.4721  24.6864  24.9794  25.1435  25.5058  25.5328
    25.7519  25.8550  26.0840  26.2877  26.8748  26.9557  27.6470  28.0451
    28.1644  28.3332  28.8561  28.9807  29.2352  29.4871  29.4948  29.7527
    29.7768  29.8530  30.0272  30.1702  31.0435  31.1678  31.4813  31.6573
    31.7616  31.7652  32.0326  32.3129  32.8514

          k = 0.9583 0.0481 0.0000 ( 13030 PWs)   bands (ev):

   -22.2124 -17.4523 -15.3557 -10.2495  -9.1756  -5.9065  -5.7731  -5.1892
    -0.5454   0.7358   1.5074   1.7685   2.3699   2.7061   3.8504   4.3132
     5.2908   5.9423   6.0160   6.2849   6.5202   7.4649   8.3144   8.6043
     8.7239   8.8582   9.2449   9.3040   9.6088  10.0507  10.5492  10.5715
    10.9669  11.1617  11.5021  11.8166  11.9348  12.3409  12.5497  12.6721
    13.2948  13.3089  13.8212  14.5512  15.5088  15.5621  15.7907  15.9914
    16.6112  16.7897  17.3163  18.3541  18.3985  19.1134  19.1907  19.7965
    20.3095  20.3650  20.4648  21.1035  21.8557  22.1074  23.2199  23.3139
    23.4325  24.2409  24.6332  24.7383  25.0549  25.3618  25.3678  25.5506
    25.6227  25.7449  26.1395  26.8233  26.8885  27.0289  27.5053  27.6834
    27.9854  28.6219  28.6676  28.9150  29.0921  29.3591  29.6380  29.8477
    30.1315  30.2685  30.3238  30.3719  31.0484  31.0650  31.1592  31.2381
    31.6823  31.7120  31.7166  31.7403  32.0972

          k = 0.9583 0.0962 0.0000 ( 13021 PWs)   bands (ev):

   -22.0880 -18.2251 -14.3999 -10.0998  -9.0507  -6.3691  -6.0406  -5.7952
     0.2516   0.9052   1.6793   1.9424   2.5426   2.8788   4.0222   4.4840
     5.3450   6.0970   6.1125   6.3141   6.6970   6.7557   7.1474   7.5075
     8.0539   8.4070   8.4366   8.7721   9.4711   9.4763   9.9730  10.7844
    11.3755  11.4027  11.9798  12.1307  12.3221  12.8431  13.0602  13.3993
    13.8383  13.9270  14.8007  14.8465  15.1886  15.7145  16.0060  16.4047
    16.7807  17.2699  17.2737  18.0982  18.3580  19.0405  19.7530  19.9042
    20.5591  20.8362  20.9900  21.2781  21.8806  21.9337  23.4815  23.4935
    23.7111  23.9452  24.8202  24.8963  24.9127  25.0332  25.2138  25.5834
    25.8045  25.9673  26.3061  26.9195  27.2027  27.3149  27.6513  27.8986
    27.9293  28.5438  28.5726  28.9142  29.0912  29.2938  29.3167  29.5485
    29.7510  29.8051  29.8330  30.0299  30.2836  30.4960  30.5093  30.6067
    30.6981  30.8762  31.0243  31.3728  31.3989

          k = 0.9583 0.1443 0.0000 ( 13012 PWs)   bands (ev):

   -21.8812 -18.9643 -13.3606  -9.8515  -8.8451  -7.0780  -6.5196  -6.4308
     1.1875   1.2841   1.9655   2.2322   2.8304   3.1666   4.3082   4.7685
     5.1868   5.5134   6.0793   6.1600   6.3956   6.4071   6.9695   6.9852
     7.3171   7.4957   7.7732   8.4087   8.8943   9.0511   9.7622  10.4110
    11.0623  11.2059  12.2496  12.6102  12.7405  13.1271  13.8103  13.8337
    14.7042  15.0273  15.0903  15.6236  15.7203  15.9602  16.5879  16.6452
    17.0615  17.1123  17.6776  18.0800  19.1608  19.9235  19.9996  20.1166
    20.8184  20.9125  21.3151  21.6155  22.2738  22.4034  22.4317  23.7611
    24.0623  24.5153  24.5560  25.0257  25.1544  25.2137  25.6325  25.7918
    26.0709  26.0837  26.2881  26.5886  26.9383  27.3120  27.3622  27.3798
    27.5223  28.0521  28.1450  28.2189  28.2998  28.3387  28.5474  29.1096
    29.3832  29.3951  29.4243  29.5331  29.7046  29.7656  29.8172  29.9358
    30.0682  30.1560  30.2832  30.3084  30.3916

          k = 0.9583 0.1925 0.0000 ( 13029 PWs)   bands (ev):

   -21.5924 -19.6402 -12.2766  -9.5066  -8.5635  -7.9691  -7.2469  -6.8844
     1.5827   2.3656   2.4204   2.6380   3.2329   3.5696   4.2778   4.7078
     5.1198   5.1653   5.4156   5.6028   5.9969   6.1521   6.3442   6.7765
     6.9300   7.3836   7.4487   7.9268   8.4652   9.4403   9.4844  10.1037
    10.1605  11.8059  12.0104  12.6226  12.8379  13.0328  13.5233  14.4572
    14.4769  15.7174  16.1824  16.2793  16.4399  16.7957  16.8094  17.4517
    17.6161  17.7976  18.7512  19.3443  19.6789  19.7622  20.0521  20.4700
    21.4370  21.4984  21.6263  21.6824  22.0981  23.1346  23.3303  23.5514
    24.2361  24.3324  24.4940  24.5091  24.9015  24.9495  25.3959  25.5028
    25.6048  25.9038  26.0413  26.0830  26.2535  26.5594  26.9277  26.9714
    27.2505  27.4174  27.5894  27.8141  27.8160  27.9442  27.9789  28.4115
    28.6989  28.7339  28.7953  29.2959  29.3798  29.3869  29.6753  29.7649
    29.7872  29.9197  29.9257  30.3229  30.4882

          k = 0.9583 0.2406 0.0000 ( 13037 PWs)   bands (ev):

   -21.2224 -20.2442 -11.1688  -9.0673  -8.9805  -8.2131  -7.9278  -7.3541
     2.0903   2.8782   3.1597   3.4401   3.5692   3.7491   4.0875   4.2918
     4.5505   5.1397   5.2152   5.4531   5.6625   5.7702   5.9132   6.0835
     6.5977   7.0739   7.3047   7.8942   8.6517   9.2549   9.6071   9.9376
    10.6710  11.2374  11.9974  12.1372  12.5340  13.0912  13.9908  14.0306
    14.1980  15.3687  16.2537  16.6091  17.8938  17.9488  18.1818  18.5165
    18.8010  18.9977  19.2425  19.5137  19.5568  20.6128  21.0691  21.2354
    21.4663  21.4668  22.1346  22.3641  22.5429  22.6436  22.8829  22.9610
    23.1920  23.6202  23.6846  23.7134  23.9153  24.4859  25.0229  25.3487
    25.4609  25.6098  26.0967  26.1397  26.1659  26.5084  26.5486  26.8292
    27.0805  27.2018  27.4448  27.5224  27.5656  27.6282  27.6887  28.1208
    28.1343  28.4438  28.4725  28.8506  29.0944  29.1145  29.2484  29.7710
    29.8705  30.0057  30.1133  30.1806  30.3171

          k = 0.9583 0.2887 0.0000 ( 13024 PWs)   bands (ev):

   -20.7724 -20.7723 -10.0602 -10.0602  -8.5386  -8.5384  -7.8047  -7.8045
     2.7099   2.7099   3.4963   3.4964   3.7973   3.7973   4.3644   4.3644
     4.7192   4.7192   4.8137   4.8138   5.8614   5.8614   5.8920   5.8922
     6.3488   6.3488   7.9236   7.9236   8.5181   8.5181  10.5394  10.5394
    10.8548  10.8549  11.2953  11.2954  13.3050  13.3051  13.6369  13.6370
    14.6471  14.6471  16.7087  16.7088  18.3798  18.3798  18.5452  18.5452
    19.5715  19.5715  20.4834  20.4834  20.5209  20.5209  21.1240  21.1240
    21.4197  21.4197  21.7320  21.7320  22.1725  22.1725  22.6789  22.6789
    23.0913  23.0913  23.3343  23.3343  24.1249  24.1249  25.0812  25.0812
    25.3807  25.3807  26.0741  26.0741  26.5890  26.5890  26.7850  26.7850
    26.7915  26.7915  27.3712  27.3713  27.6768  27.6768  28.0779  28.0779
    28.0859  28.0859  28.3135  28.3135  28.8700  28.8700  29.1155  29.1155
    29.9613  29.9613  29.9960  29.9960  30.9546

          k = 0.9583 0.3368 0.0000 ( 13037 PWs)   bands (ev):

   -21.2224 -20.2442 -11.1688  -9.0673  -8.9805  -8.2131  -7.9278  -7.3541
     2.0903   2.8782   3.1597   3.4401   3.5692   3.7491   4.0875   4.2918
     4.5505   5.1397   5.2152   5.4531   5.6625   5.7702   5.9132   6.0835
     6.5977   7.0739   7.3047   7.8942   8.6517   9.2549   9.6071   9.9376
    10.6710  11.2374  11.9974  12.1373  12.5340  13.0912  13.9908  14.0306
    14.1980  15.3687  16.2537  16.6091  17.8938  17.9488  18.1818  18.5165
    18.8010  18.9977  19.2425  19.5137  19.5568  20.6128  21.0691  21.2354
    21.4663  21.4668  22.1346  22.3641  22.5429  22.6436  22.8829  22.9610
    23.1920  23.6202  23.6846  23.7134  23.9153  24.4859  25.0229  25.3487
    25.4609  25.6098  26.0967  26.1397  26.1659  26.5084  26.5486  26.8292
    27.0805  27.2018  27.4448  27.5224  27.5656  27.6282  27.6887  28.1208
    28.1343  28.4438  28.4725  28.8506  29.0944  29.1145  29.2484  29.7710
    29.8705  30.0057  30.1133  30.1806  30.3171

          k = 0.9583 0.3849 0.0000 ( 13029 PWs)   bands (ev):

   -21.5924 -19.6402 -12.2766  -9.5066  -8.5635  -7.9691  -7.2469  -6.8844
     1.5827   2.3656   2.4204   2.6380   3.2329   3.5696   4.2778   4.7078
     5.1198   5.1653   5.4156   5.6028   5.9969   6.1521   6.3442   6.7765
     6.9300   7.3836   7.4487   7.9268   8.4652   9.4403   9.4844  10.1037
    10.1605  11.8059  12.0104  12.6226  12.8379  13.0328  13.5233  14.4572
    14.4769  15.7174  16.1824  16.2793  16.4399  16.7957  16.8094  17.4517
    17.6161  17.7976  18.7512  19.3443  19.6789  19.7622  20.0521  20.4700
    21.4370  21.4984  21.6263  21.6824  22.0981  23.1346  23.3303  23.5514
    24.2361  24.3324  24.4940  24.5091  24.9015  24.9495  25.3959  25.5028
    25.6048  25.9038  26.0413  26.0830  26.2535  26.5594  26.9277  26.9714
    27.2505  27.4174  27.5894  27.8141  27.8160  27.9442  27.9789  28.4115
    28.6989  28.7339  28.7953  29.2959  29.3798  29.3869  29.6753  29.7649
    29.7872  29.9197  29.9257  30.3229  30.4882

          k = 0.9583 0.4330 0.0000 ( 13012 PWs)   bands (ev):

   -21.8812 -18.9643 -13.3606  -9.8515  -8.8451  -7.0780  -6.5196  -6.4308
     1.1875   1.2841   1.9655   2.2322   2.8304   3.1666   4.3082   4.7685
     5.1868   5.5134   6.0793   6.1600   6.3956   6.4071   6.9695   6.9852
     7.3171   7.4957   7.7732   8.4087   8.8943   9.0511   9.7622  10.4110
    11.0623  11.2059  12.2496  12.6102  12.7405  13.1271  13.8103  13.8337
    14.7042  15.0273  15.0903  15.6236  15.7203  15.9602  16.5879  16.6452
    17.0615  17.1123  17.6776  18.0800  19.1608  19.9235  19.9996  20.1166
    20.8185  20.9125  21.3151  21.6155  22.2738  22.4034  22.4317  23.7611
    24.0623  24.5153  24.5560  25.0257  25.1544  25.2137  25.6325  25.7918
    26.0709  26.0837  26.2881  26.5886  26.9383  27.3120  27.3622  27.3798
    27.5223  28.0521  28.1450  28.2189  28.2998  28.3387  28.5474  29.1096
    29.3832  29.3951  29.4243  29.5331  29.7046  29.7656  29.8172  29.9358
    30.0682  30.1560  30.2832  30.3084  30.3916

          k = 0.9583 0.4811 0.0000 ( 13021 PWs)   bands (ev):

   -22.0880 -18.2251 -14.3999 -10.0998  -9.0507  -6.3691  -6.0406  -5.7952
     0.2516   0.9052   1.6793   1.9424   2.5426   2.8788   4.0222   4.4840
     5.3450   6.0970   6.1125   6.3141   6.6970   6.7557   7.1474   7.5075
     8.0539   8.4070   8.4366   8.7721   9.4711   9.4763   9.9730  10.7844
    11.3755  11.4027  11.9798  12.1307  12.3221  12.8431  13.0602  13.3993
    13.8383  13.9270  14.8007  14.8465  15.1886  15.7145  16.0060  16.4047
    16.7807  17.2699  17.2737  18.0982  18.3580  19.0405  19.7530  19.9042
    20.5591  20.8362  20.9900  21.2781  21.8806  21.9337  23.4815  23.4935
    23.7111  23.9452  24.8202  24.8963  24.9127  25.0332  25.2138  25.5834
    25.8045  25.9673  26.3061  26.9195  27.2027  27.3149  27.6513  27.8986
    27.9293  28.5438  28.5726  28.9142  29.0912  29.2938  29.3167  29.5485
    29.7510  29.8051  29.8330  30.0299  30.2836  30.4960  30.5093  30.6067
    30.6981  30.8762  31.0243  31.3728  31.3989

          k = 0.9583 0.5292 0.0000 ( 13030 PWs)   bands (ev):

   -22.2124 -17.4523 -15.3557 -10.2495  -9.1756  -5.9065  -5.7731  -5.1892
    -0.5454   0.7358   1.5074   1.7685   2.3699   2.7061   3.8504   4.3132
     5.2908   5.9423   6.0159   6.2849   6.5202   7.4649   8.3144   8.6043
     8.7239   8.8582   9.2449   9.3040   9.6088  10.0507  10.5492  10.5715
    10.9669  11.1617  11.5021  11.8166  11.9348  12.3409  12.5497  12.6721
    13.2948  13.3089  13.8212  14.5512  15.5088  15.5621  15.7907  15.9914
    16.6112  16.7897  17.3163  18.3541  18.3985  19.1134  19.1907  19.7965
    20.3095  20.3650  20.4648  21.1035  21.8557  22.1074  23.2199  23.3139
    23.4325  24.2409  24.6332  24.7383  25.0549  25.3618  25.3678  25.5506
    25.6227  25.7449  26.1395  26.8233  26.8885  27.0289  27.5053  27.6834
    27.9854  28.6219  28.6676  28.9150  29.0921  29.3591  29.6380  29.8477
    30.1315  30.2685  30.3238  30.3719  31.0484  31.0650  31.1592  31.2381
    31.6823  31.7120  31.7166  31.7403  32.0972

     Writing output data file slab.save/

     init_run     :      1.28s CPU      1.33s WALL (       1 calls)
     electrons    :    408.41s CPU    420.08s WALL (       1 calls)

     Called by init_run:
     wfcinit      :      0.00s CPU      0.01s WALL (       1 calls)
     wfcinit:atom :      0.11s CPU      0.14s WALL (      72 calls)
     wfcinit:wfcr :     19.04s CPU     19.65s WALL (      72 calls)
     potinit      :      0.08s CPU      0.09s WALL (       1 calls)
     hinit0       :      1.16s CPU      1.17s WALL (       1 calls)

     Called by electrons:
     c_bands      :    408.38s CPU    419.92s WALL (       1 calls)
     v_of_rho     :      0.05s CPU      0.05s WALL (       1 calls)
     v_h          :      0.00s CPU      0.00s WALL (       1 calls)
     v_xc         :      0.05s CPU      0.05s WALL (       1 calls)

     Called by c_bands:
     init_us_2    :      0.10s CPU      0.12s WALL (      72 calls)
     cegterg      :    380.98s CPU    390.55s WALL (      73 calls)

     Called by sum_band:

     Called by *egterg:
     h_psi        :    166.09s CPU    171.78s WALL (    1318 calls)
     g_psi        :      6.15s CPU      6.21s WALL (    1173 calls)
     cdiaghg      :     78.36s CPU     78.87s WALL (    1245 calls)
     cegterg:over :     65.40s CPU     66.90s WALL (    1173 calls)
     cegterg:upda :     47.66s CPU     48.62s WALL (    1173 calls)
     cegterg:last :     23.43s CPU     23.73s WALL (     225 calls)

     Called by h_psi:
     h_psi:pot    :    164.31s CPU    168.65s WALL (    1318 calls)
     h_psi:calbec :      5.12s CPU      5.22s WALL (    1318 calls)
     vloc_psi     :    155.04s CPU    159.23s WALL (    1318 calls)
     add_vuspsi   :      4.13s CPU      4.18s WALL (    1318 calls)

     General routines
     calbec       :      5.11s CPU      5.22s WALL (    1318 calls)
     fft          :      0.03s CPU      0.04s WALL (      11 calls)
     fftw         :    129.55s CPU    133.19s WALL (  157270 calls)
     davcio       :      0.02s CPU      0.41s WALL (     144 calls)

     Parallel routines
     fft_scatt_xy :     26.50s CPU     27.08s WALL (  157281 calls)
     fft_scatt_yz :     32.06s CPU     33.66s WALL (  157281 calls)

     PWSCF        :   6m51.62s CPU   7m 5.16s WALL


   This run was terminated on:  14: 8:36   5May2023            

=------------------------------------------------------------------------------=
   JOB DONE.
=------------------------------------------------------------------------------=
